/var/spool/slurmd/job6368206/slurm_script: line 8: ​: command not found
/var/spool/slurmd/job6368206/slurm_script: line 13: ​: command not found
/var/spool/slurmd/job6368206/slurm_script: line 16: ​: command not found
/var/spool/slurmd/job6368206/slurm_script: line 22: ​: command not found

                                 *****************
                                 * O   R   C   A *
                                 *****************

           --- An Ab Initio, DFT and Semiempirical electronic structure package ---

                  #######################################################
                  #                        -***-                        #
                  #          Department of theory and spectroscopy      #
                  #               Directorship: Frank Neese             #
                  #        Max Planck Institute fuer Kohlenforschung    #
                  #                Kaiser Wilhelm Platz 1               #
                  #                 D-45470 Muelheim/Ruhr               #
                  #                      Germany                        #
                  #                                                     #
                  #                  All rights reserved                #
                  #                        -***-                        #
                  #######################################################


                         Program Version 4.2.0 -  RELEASE  -


 With contributions from (in alphabetic order):
   Daniel Aravena         : Magnetic Suceptibility
   Michael Atanasov       : Ab Initio Ligand Field Theory (pilot matlab implementation)
   Alexander A. Auer      : GIAO ZORA, VPT2
   Ute Becker             : Parallelization
   Giovanni Bistoni       : ED, misc. LED, open-shell LED, HFLED
   Martin Brehm           : Molecular dynamics
   Dmytro Bykov           : SCF Hessian
   Vijay G. Chilkuri      : MRCI spin determinant printing, contributions to CSF-ICE
   Dipayan Datta          : RHF DLPNO-CCSD density
   Achintya Kumar Dutta   : EOM-CC, STEOM-CC
   Dmitry Ganyushin       : Spin-Orbit,Spin-Spin,Magnetic field MRCI
   Miquel Garcia          : C-PCM Hessian, Gaussian charge scheme
   Yang Guo               : DLPNO-NEVPT2, CIM, IAO-localization
   Andreas Hansen         : Spin unrestricted coupled pair/coupled cluster methods
   Benjamin Helmich-Paris : CASSCF linear response (MC-RPA)
   Lee Huntington         : MR-EOM, pCC
   Robert Izsak           : Overlap fitted RIJCOSX, COSX-SCS-MP3, EOM
   Christian Kollmar      : KDIIS, OOCD, Brueckner-CCSD(T), CCSD density
   Simone Kossmann        : Meta GGA functionals, TD-DFT gradient, OOMP2, MP2 Hessian
   Martin Krupicka        : AUTO-CI
   Lucas Lang             : DCDCAS
   Dagmar Lenk            : GEPOL surface, SMD
   Dimitrios Liakos       : Extrapolation schemes; Compound Job, initial MDCI parallelization
   Dimitrios Manganas     : Further ROCIS development; embedding schemes
   Dimitrios Pantazis     : SARC Basis sets
   Taras Petrenko         : DFT Hessian,TD-DFT gradient, ASA, ECA, R-Raman, ABS, FL, XAS/XES, NRVS
   Peter Pinski           : DLPNO-MP2, DLPNO-MP2 Gradient
   Christoph Reimann      : Effective Core Potentials
   Marius Retegan         : Local ZFS, SOC
   Christoph Riplinger    : Optimizer, TS searches, QM/MM, DLPNO-CCSD(T), (RO)-DLPNO pert. Triples
   Tobias Risthaus        : Range-separated hybrids, TD-DFT gradient, RPA, STAB
   Michael Roemelt        : Original ROCIS implementation
   Masaaki Saitow         : Open-shell DLPNO-CCSD energy and density
   Barbara Sandhoefer     : DKH picture change effects
   Avijit Sen             : IP-ROCIS
   Kantharuban Sivalingam : CASSCF convergence, NEVPT2, FIC-MRCI
   Bernardo de Souza      : ESD, SOC TD-DFT
   Georgi Stoychev        : AutoAux, RI-MP2 NMR
   Willem Van den Heuvel  : Paramagnetic NMR
   Boris Wezisla          : Elementary symmetry handling
   Frank Wennmohs         : Technical directorship


 We gratefully acknowledge several colleagues who have allowed us to
 interface, adapt or use parts of their codes:
   Stefan Grimme, W. Hujo, H. Kruse,             : VdW corrections, initial TS optimization,
                  C. Bannwarth                     DFT functionals, gCP, sTDA/sTD-DF
   Ed Valeev, F. Pavosevic, A. Kumar             : LibInt (2-el integral package), F12 methods
   Garnet Chan, S. Sharma, J. Yang, R. Olivares  : DMRG
   Ulf Ekstrom                                   : XCFun DFT Library
   Mihaly Kallay                                 : mrcc  (arbitrary order and MRCC methods)
   Andreas Klamt, Michael Diedenhofen            : otool_cosmo (COSMO solvation model)
   Jiri Pittner, Ondrej Demel                    : Mk-CCSD
   Frank Weinhold                                : gennbo (NPA and NBO analysis)
   Christopher J. Cramer and Donald G. Truhlar   : smd solvation model
   Lars Goerigk                                  : TD-DFT with DH, B97 family of functionals
   V. Asgeirsson, H. Jonsson                     : NEB implementation
   FAccTs GmbH                                   : IRC, NEB, NEB-TS, Multilevel, MM, QM/MM, CI optimization
   S Lehtola, MJT Oliveira, MAL Marques          : LibXC Library


 Your calculation uses the libint2 library for the computation of 2-el integrals
 For citations please refer to: http://libint.valeyev.net

 Your ORCA version has been built with support for libXC version: 4.2.3
 For citations please refer to: https://tddft.org/programs/libxc/

 This ORCA versions uses:
   CBLAS   interface :  Fast vector & matrix operations
   LAPACKE interface :  Fast linear algebra routines
   SCALAPACK package :  Parallel linear algebra routines


Your calculation utilizes the atom-pairwise dispersion correction
with the Becke-Johnson damping scheme (D3BJ)
Cite in your paper:
S.Grimme, S.Ehrlich, L.Goerigk, J Comput Chem, (2011), 32, 1456–1465 
S.Grimme, J.Antony, S.Ehrlich and H.Krieg, J.Chem.Phys., 132, (2010), 154104 
   

----- Orbital basis set information -----
Your calculation utilizes the basis: def2-TZVP
   F. Weigend and R. Ahlrichs, Phys. Chem. Chem. Phys. 7, 3297 (2005).

================================================================================
                                        WARNINGS
                       Please study these warnings very carefully!
================================================================================


WARNING: Geometry Optimization
  ===> : Switching off AutoStart
         For restart on a previous wavefunction, please use MOREAD

INFO   : the flag for use of LIBINT has been found!

================================================================================
                                       INPUT FILE
================================================================================
NAME = input.inp
|  1> ! PBE0 D3 def2-TZVP Opt
|  2> *xyz 0 1
|  3> C(1) 0.18726407287156 0.08210467619149 0.19811955853244
|  4> H(1) 1.07120465088431 -0.00229078749404 -0.46002874025040
|  5> H(1) -0.15524644515923 1.12171178448874 0.04316776563623
|  6> O(2) -1.47509614629583 -1.29358571885374 2.29818864036820
|  7> H(2) -0.87783948760158 -0.98540169212890 1.58987042714267
|  8> H(2) -1.22399221548771 -2.20523304094991 2.47014489963764
|  9> **                         ****END OF INPUT****
================================================================================

                       *****************************
                       * Geometry Optimization Run *
                       *****************************

Geometry optimization settings:
Update method            Update   .... BFGS
Choice of coordinates    CoordSys .... Z-matrix Internals
Initial Hessian          InHess   .... Almoef's Model

Convergence Tolerances:
Energy Change            TolE     ....  5.0000e-06 Eh
Max. Gradient            TolMAXG  ....  3.0000e-04 Eh/bohr
RMS Gradient             TolRMSG  ....  1.0000e-04 Eh/bohr
Max. Displacement        TolMAXD  ....  4.0000e-03 bohr
RMS Displacement         TolRMSD  ....  2.0000e-03 bohr
Strict Convergence                ....  False
------------------------------------------------------------------------------
                        ORCA OPTIMIZATION COORDINATE SETUP
------------------------------------------------------------------------------

The optimization will be done in new redundant internal coordinates
Making redundant internal coordinates   ...  (new redundants) done
Evaluating the initial hessian          ...  (Almloef) done
Evaluating the coordinates              ...  done
Calculating the B-matrix                .... done
Calculating the G-matrix                .... done
Diagonalizing the G-matrix              .... done
The first mode is                       ....    1
The number of degrees of freedom        ....   12

    -----------------------------------------------------------------
                    Redundant Internal Coordinates


    -----------------------------------------------------------------
         Definition                    Initial Value    Approx d2E/dq
    -----------------------------------------------------------------
      1. B(H   1,C   0)                  1.1053         0.340450   
      2. B(H   2,C   0)                  1.1055         0.340182   
      3. B(H   4,O   3)                  0.9764         0.489508   
      4. B(H   4,C   0)                  2.0521         0.010508   
      5. B(H   5,O   3)                  0.9611         0.517850   
      6. A(H   1,C   0,H   2)          103.6580         0.285742   
      7. A(H   1,C   0,H   4)          141.1902         0.178553   
      8. A(H   2,C   0,H   4)          115.0531         0.178537   
      9. A(H   4,O   3,H   5)          105.6263         0.318464   
     10. A(C   0,H   4,O   3)          166.8223         0.185091   
     11. D(O   3,H   4,C   0,H   2)    -10.0925         0.001548   
     12. D(C   0,H   4,O   3,H   5)   -171.1094         0.260804   
     13. D(O   3,H   4,C   0,H   1)    165.5092         0.001548   
    -----------------------------------------------------------------

Number of atoms                         .... 6
Number of degrees of freedom            .... 13

         *************************************************************
         *                GEOMETRY OPTIMIZATION CYCLE   1            *
         *************************************************************
---------------------------------
CARTESIAN COORDINATES (ANGSTROEM)
---------------------------------
  C      0.187264    0.082105    0.198120
  H      1.071205   -0.002291   -0.460029
  H     -0.155246    1.121712    0.043168
  O     -1.475096   -1.293586    2.298189
  H     -0.877839   -0.985402    1.589870
  H     -1.223992   -2.205233    2.470145

----------------------------
CARTESIAN COORDINATES (A.U.)
----------------------------
  NO LB      ZA    FRAG     MASS         X           Y           Z
   0 C     6.0000    1    12.011    0.353878    0.155155    0.374392
   1 H     1.0000    1     1.008    2.024283   -0.004329   -0.869328
   2 H     1.0000    1     1.008   -0.293373    2.119728    0.081575
   3 O     8.0000    2    15.999   -2.787528   -2.444523    4.342947
   4 H     1.0000    2     1.008   -1.658876   -1.862139    3.004420
   5 H     1.0000    2     1.008   -2.313010   -4.167287    4.667897

----------------------------------------------
CARTESIAN COORDINATES OF FRAGMENTS (ANGSTROEM)
----------------------------------------------

 FRAGMENT 1 
  C     0.187264    0.082105    0.198120
  H     1.071205   -0.002291   -0.460029
  H    -0.155246    1.121712    0.043168

 FRAGMENT 2 
  O    -1.475096   -1.293586    2.298189
  H    -0.877839   -0.985402    1.589870
  H    -1.223992   -2.205233    2.470145

--------------------------------
INTERNAL COORDINATES (ANGSTROEM)
--------------------------------
 C      0   0   0     0.000000000000     0.00000000     0.00000000
 H      1   0   0     1.105274953547     0.00000000     0.00000000
 H      1   2   0     1.105489236811   103.65803667     0.00000000
 O      1   2   3     3.011022369524   145.28128129   185.96121141
 H      4   1   2     0.976425932608     8.93810536   344.01710359
 H      4   1   2     0.961105082212   114.45115967   353.42719161

---------------------------
INTERNAL COORDINATES (A.U.)
---------------------------
 C      0   0   0     0.000000000000     0.00000000     0.00000000
 H      1   0   0     2.088666964887     0.00000000     0.00000000
 H      1   2   0     2.089071901571   103.65803667     0.00000000
 O      1   2   3     5.690007661511   145.28128129   185.96121141
 H      4   1   2     1.845177602688     8.93810536   344.01710359
 H      4   1   2     1.816225391301   114.45115967   353.42719161

---------------------
BASIS SET INFORMATION
---------------------
There are 3 groups of distinct atoms

 Group   1 Type C   : 11s6p2d1f contracted to 5s3p2d1f pattern {62111/411/11/1}
 Group   2 Type H   : 5s1p contracted to 3s1p pattern {311/1}
 Group   3 Type O   : 11s6p2d1f contracted to 5s3p2d1f pattern {62111/411/11/1}

Atom   0C    basis set group =>   1
Atom   1H    basis set group =>   2
Atom   2H    basis set group =>   2
Atom   3O    basis set group =>   3
Atom   4H    basis set group =>   2
Atom   5H    basis set group =>   2
------------------------------------------------------------------------------
                           ORCA GTO INTEGRAL CALCULATION
------------------------------------------------------------------------------

                         BASIS SET STATISTICS AND STARTUP INFO

 # of primitive gaussian shells          ...   64
 # of primitive gaussian functions       ...  124
 # of contracted shells                  ...   38
 # of contracted basis functions         ...   86
 Highest angular momentum                ...    3
 Maximum contraction depth               ...    6
 Integral package used                   ... LIBINT
 Integral threshhold            Thresh   ...  2.500e-11
 Primitive cut-off              TCut     ...  2.500e-12


------------------------------ INTEGRAL EVALUATION ----------------------------


 * One electron integrals 
 Pre-screening matrix                    ... done
 Shell pair data                         ... done (   0.000 sec)

-------------------------------------------------------------------------------
                                 ORCA SCF
-------------------------------------------------------------------------------

------------
SCF SETTINGS
------------
Hamiltonian:
 Density Functional     Method          .... DFT(GTOs)
 Exchange Functional    Exchange        .... PBE
   PBE kappa parameter   XKappa         ....  0.804000
   PBE mue parameter    XMuePBE         ....  0.219520
 Correlation Functional Correlation     .... PBE
   PBE beta parameter  CBetaPBE         ....  0.066725
 LDA part of GGA corr.  LDAOpt          .... PW91-LDA
 Gradients option       PostSCFGGA      .... off
 Hybrid DFT is turned on
   Fraction HF Exchange ScalHFX         ....  0.250000
   Scaling of DF-GGA-X  ScalDFX         ....  0.750000
   Scaling of DF-GGA-C  ScalDFC         ....  1.000000
   Scaling of DF-LDA-C  ScalLDAC        ....  1.000000
   Perturbative correction              ....  0.000000
   Density functional embedding theory  .... OFF
   NL short-range parameter             ....  6.900000


General Settings:
 Integral files         IntName         .... input
 Hartree-Fock type      HFTyp           .... RHF
 Total Charge           Charge          ....    0
 Multiplicity           Mult            ....    1
 Number of Electrons    NEL             ....   18
 Basis Dimension        Dim             ....   86
 Nuclear Repulsion      ENuc            ....     28.8924190051 Eh

Convergence Acceleration:
 DIIS                   CNVDIIS         .... on
   Start iteration      DIISMaxIt       ....    12
   Startup error        DIISStart       ....  0.200000
   # of expansion vecs  DIISMaxEq       ....     5
   Bias factor          DIISBfac        ....   1.050
   Max. coefficient     DIISMaxC        ....  10.000
 Newton-Raphson         CNVNR           .... off
 SOSCF                  CNVSOSCF        .... on
   Start iteration      SOSCFMaxIt      ....   150
   Startup grad/error   SOSCFStart      ....  0.003300
 Level Shifting         CNVShift        .... on
   Level shift para.    LevelShift      ....    0.2500
   Turn off err/grad.   ShiftErr        ....    0.0010
 Zerner damping         CNVZerner       .... off
 Static damping         CNVDamp         .... on
   Fraction old density DampFac         ....    0.7000
   Max. Damping (<1)    DampMax         ....    0.9800
   Min. Damping (>=0)   DampMin         ....    0.0000
   Turn off err/grad.   DampErr         ....    0.1000
 Fernandez-Rico         CNVRico         .... off

SCF Procedure:
 Maximum # iterations   MaxIter         ....   125
 SCF integral mode      SCFMode         .... Direct
   Integral package                     .... LIBINT
 Reset frequency        DirectResetFreq ....    20
 Integral Threshold     Thresh          ....  2.500e-11 Eh
 Primitive CutOff       TCut            ....  2.500e-12 Eh

Convergence Tolerance:
 Convergence Check Mode ConvCheckMode   .... Total+1el-Energy
 Convergence forced     ConvForced      .... 0
 Energy Change          TolE            ....  1.000e-08 Eh
 1-El. energy change                    ....  1.000e-05 Eh
 Orbital Gradient       TolG            ....  1.000e-05
 Orbital Rotation angle TolX            ....  1.000e-05
 DIIS Error             TolErr          ....  5.000e-07


Diagonalization of the overlap matrix:
Smallest eigenvalue                        ... 3.801e-03
Time for diagonalization                   ...    0.002 sec
Threshold for overlap eigenvalues          ... 1.000e-08
Number of eigenvalues below threshold      ... 0
Time for construction of square roots      ...    0.000 sec
Total time needed                          ...    0.002 sec

-------------------
DFT GRID GENERATION
-------------------

General Integration Accuracy     IntAcc      ...  4.340
Radial Grid Type                 RadialGrid  ... Gauss-Chebyshev
Angular Grid (max. acc.)         AngularGrid ... Lebedev-110
Angular grid pruning method      GridPruning ... 3 (G Style)
Weight generation scheme         WeightScheme... Becke
Basis function cutoff            BFCut       ...    1.0000e-11
Integration weight cutoff        WCut        ...    1.0000e-14
Grids for H and He will be reduced by one unit

# of grid points (after initial pruning)     ...   6548 (   0.0 sec)
# of grid points (after weights+screening)   ...   6444 (   0.0 sec)
nearest neighbour list constructed           ...    0.0 sec
Grid point re-assignment to atoms done       ...    0.0 sec
Grid point division into batches done        ...    0.0 sec
Reduced shell lists constructed in    0.0 sec

Total number of grid points                  ...     6444
Total number of batches                      ...      104
Average number of points per batch           ...       61
Average number of grid points per atom       ...     1074
Average number of shells per batch           ...    28.78 (75.74%)
Average number of basis functions per batch  ...    65.10 (75.70%)
Average number of large shells per batch     ...    24.17 (83.98%)
Average number of large basis fcns per batch ...    53.87 (82.74%)
Maximum spatial batch extension              ...  22.26, 21.59, 22.24 au
Average spatial batch extension              ...   5.40,  4.88,  5.00 au

Time for grid setup =    0.027 sec

------------------------------
INITIAL GUESS: MODEL POTENTIAL
------------------------------
Loading Hartree-Fock densities                     ... done
Calculating cut-offs                               ... done
Setting up the integral package                    ... done
Initializing the effective Hamiltonian             ... done
Starting the Coulomb interaction                   ... done (   0.0 sec)
Reading the grid                                   ... done
Mapping shells                                     ... done
Starting the XC term evaluation                    ... done (   0.0 sec)
  promolecular density results
     # of electrons  =     17.996651772
     EX              =    -14.325214448
     EC              =     -0.545287076
     EX+EC           =    -14.870501525
Transforming the Hamiltonian                       ... done (   0.0 sec)
Diagonalizing the Hamiltonian                      ... done (   0.0 sec)
Back transforming the eigenvectors                 ... done (   0.0 sec)
Now organizing SCF variables                       ... done
                      ------------------
                      INITIAL GUESS DONE (   0.1 sec)
                      ------------------
--------------
SCF ITERATIONS
--------------
ITER       Energy         Delta-E        Max-DP      RMS-DP      [F,P]     Damp
               ***  Starting incremental Fock matrix formation  ***
  0   -115.3673054835   0.000000000000 0.05099995  0.00203296  0.3358311 0.7000
  1   -115.4198242879  -0.052518804421 0.02731373  0.00131117  0.1397623 0.7000
                               ***Turning on DIIS***
  2   -115.4375706408  -0.017746352909 0.03506181  0.00194053  0.0315973 0.0000
  3   -115.4688024989  -0.031231858082 0.01839260  0.00079690  0.0820561 0.0000
  4   -115.4747701466  -0.005967647693 0.00430706  0.00022730  0.0079742 0.0000
                      *** Initiating the SOSCF procedure ***
                           *** Shutting down DIIS ***
                      *** Re-Reading the Fockian *** 
                      *** Removing any level shift *** 
ITER      Energy       Delta-E        Grad      Rot      Max-DP    RMS-DP
  5   -115.47493856  -0.0001684144  0.000597  0.000597  0.001389  0.000061
               *** Restarting incremental Fock matrix formation ***
  6   -115.47494912  -0.0000105617  0.000338  0.002415  0.000716  0.000040
  7   -115.47495282  -0.0000036959  0.000093  0.000932  0.000232  0.000015
  8   -115.47495312  -0.0000003055  0.000011  0.000072  0.000028  0.000002
  9   -115.47495313  -0.0000000029  0.000010  0.000010  0.000011  0.000000
                  ***Gradient check signals convergence***
              ***Rediagonalizing the Fockian in SOSCF/NRSCF***

               *****************************************************
               *                     SUCCESS                       *
               *           SCF CONVERGED AFTER  10 CYCLES          *
               *****************************************************

Setting up the final grid:

General Integration Accuracy     IntAcc      ...  4.670
Radial Grid Type                 RadialGrid  ... Gauss-Chebyshev
Angular Grid (max. acc.)         AngularGrid ... Lebedev-302
Angular grid pruning method      GridPruning ... 3 (G Style)
Weight generation scheme         WeightScheme... Becke
Basis function cutoff            BFCut       ...    1.0000e-11
Integration weight cutoff        WCut        ...    1.0000e-14
Grids for H and He will be reduced by one unit

# of grid points (after initial pruning)     ...  26000 (   0.0 sec)
# of grid points (after weights+screening)   ...  25475 (   0.0 sec)
nearest neighbour list constructed           ...    0.0 sec
Grid point re-assignment to atoms done       ...    0.0 sec
Grid point division into batches done        ...    0.1 sec
Reduced shell lists constructed in    0.1 sec

Total number of grid points                  ...    25475
Total number of batches                      ...      402
Average number of points per batch           ...       63
Average number of grid points per atom       ...     4246
Average number of shells per batch           ...    26.32 (69.27%)
Average number of basis functions per batch  ...    59.09 (68.71%)
Average number of large shells per batch     ...    21.96 (83.41%)
Average number of large basis fcns per batch ...    48.85 (82.67%)
Maximum spatial batch extension              ...  20.64, 20.64, 19.48 au
Average spatial batch extension              ...   3.24,  3.08,  3.22 au

Final grid set up in    0.2 sec
Final integration                            ... done (   0.2 sec)
Change in XC energy                          ...     0.000049317
Integrated number of electrons               ...    17.999996741
Previous integrated no of electrons          ...    17.999639483

----------------
TOTAL SCF ENERGY
----------------

Total Energy       :         -115.47490381 Eh           -3142.23188 eV

Components:
Nuclear Repulsion  :           28.89241901 Eh             786.20269 eV
Electronic Energy  :         -144.36732282 Eh           -3928.43457 eV
One Electron Energy:         -214.27606908 Eh           -5830.74827 eV
Two Electron Energy:           69.90874626 Eh            1902.31370 eV

Virial components:
Potential Energy   :         -230.49229148 Eh           -6272.01411 eV
Kinetic Energy     :          115.01738767 Eh            3129.78223 eV
Virial Ratio       :            2.00397780


DFT components:
N(Alpha)           :        8.999998370484 electrons
N(Beta)            :        8.999998370484 electrons
N(Total)           :       17.999996740968 electrons
E(X)               :      -11.011774188388 Eh       
E(C)               :       -0.555535341386 Eh       
E(XC)              :      -11.567309529774 Eh       
DFET-embed. en.    :        0.000000000000 Eh       

---------------
SCF CONVERGENCE
---------------

  Last Energy change         ...   -1.2543e-09  Tolerance :   1.0000e-08
  Last MAX-Density change    ...    2.6494e-06  Tolerance :   1.0000e-07
  Last RMS-Density change    ...    1.8071e-07  Tolerance :   5.0000e-09
  Last Orbital Gradient      ...    1.5640e-06  Tolerance :   1.0000e-05
  Last Orbital Rotation      ...    8.3437e-06  Tolerance :   1.0000e-05

             **** THE GBW FILE WAS UPDATED (input.gbw) ****
             **** DENSITY FILE WAS UPDATED (input.scfp) ****
             **** ENERGY FILE WAS UPDATED (input.en.tmp) ****
             **** THE GBW FILE WAS UPDATED (input.gbw) ****
             **** DENSITY FILE WAS UPDATED (input.scfp) ****
----------------
ORBITAL ENERGIES
----------------

  NO   OCC          E(Eh)            E(eV) 
   0   2.0000     -19.161265      -521.4045 
   1   2.0000     -10.320221      -280.8275 
   2   2.0000      -0.995735       -27.0953 
   3   2.0000      -0.714018       -19.4294 
   4   2.0000      -0.508641       -13.8408 
   5   2.0000      -0.448210       -12.1964 
   6   2.0000      -0.369167       -10.0455 
   7   2.0000      -0.292089        -7.9481 
   8   2.0000      -0.290283        -7.8990 
   9   0.0000      -0.151032        -4.1098 
  10   0.0000       0.051770         1.4087 
  11   0.0000       0.081526         2.2184 
  12   0.0000       0.107832         2.9342 
  13   0.0000       0.199523         5.4293 
  14   0.0000       0.202176         5.5015 
  15   0.0000       0.235268         6.4020 
  16   0.0000       0.245999         6.6940 
  17   0.0000       0.292498         7.9593 
  18   0.0000       0.401353        10.9214 
  19   0.0000       0.433716        11.8020 
  20   0.0000       0.449090        12.2204 
  21   0.0000       0.461217        12.5504 
  22   0.0000       0.472881        12.8677 
  23   0.0000       0.496034        13.4978 
  24   0.0000       0.609738        16.5918 
  25   0.0000       0.615275        16.7425 
  26   0.0000       0.638510        17.3747 
  27   0.0000       0.762870        20.7587 
  28   0.0000       0.854277        23.2461 
  29   0.0000       0.912241        24.8233 
  30   0.0000       0.952352        25.9148 
  31   0.0000       1.224247        33.3135 
  32   0.0000       1.240363        33.7520 
  33   0.0000       1.323255        36.0076 
  34   0.0000       1.343628        36.5620 
  35   0.0000       1.387849        37.7653 
  36   0.0000       1.416607        38.5478 
  37   0.0000       1.478328        40.2273 
  38   0.0000       1.626668        44.2639 
  39   0.0000       1.652950        44.9791 
  40   0.0000       1.720462        46.8161 
  41   0.0000       1.802424        49.0465 
  42   0.0000       1.813609        49.3508 
  43   0.0000       1.883783        51.2603 
  44   0.0000       1.987672        54.0873 
  45   0.0000       2.073185        56.4142 
  46   0.0000       2.099669        57.1349 
  47   0.0000       2.133635        58.0591 
  48   0.0000       2.156365        58.6777 
  49   0.0000       2.196256        59.7632 
  50   0.0000       2.363133        64.3041 
  51   0.0000       2.425506        66.0014 
  52   0.0000       2.503783        68.1314 
  53   0.0000       2.564696        69.7889 
  54   0.0000       2.619009        71.2668 
  55   0.0000       2.681028        72.9545 
  56   0.0000       2.709892        73.7399 
  57   0.0000       2.710539        73.7575 
  58   0.0000       2.870490        78.1100 
  59   0.0000       2.920088        79.4596 
  60   0.0000       2.950836        80.2963 
  61   0.0000       2.965099        80.6844 
  62   0.0000       3.043683        82.8228 
  63   0.0000       3.081133        83.8419 
  64   0.0000       3.179200        86.5104 
  65   0.0000       3.208531        87.3086 
  66   0.0000       3.334543        90.7375 
  67   0.0000       3.442040        93.6627 
  68   0.0000       3.721349       101.2631 
  69   0.0000       3.991713       108.6200 
  70   0.0000       4.132945       112.4631 
  71   0.0000       4.155858       113.0866 
  72   0.0000       5.153262       140.2274 
  73   0.0000       5.249738       142.8526 
  74   0.0000       5.429205       147.7362 
  75   0.0000       5.454328       148.4198 
  76   0.0000       5.533567       150.5760 
  77   0.0000       6.090972       165.7438 
  78   0.0000       6.299305       171.4128 
  79   0.0000       6.366798       173.2494 
  80   0.0000       6.433414       175.0621 
  81   0.0000       6.483692       176.4302 
  82   0.0000       6.986924       190.1239 
  83   0.0000       7.059648       192.1028 
  84   0.0000      21.675251       589.8136 
  85   0.0000      43.532951      1184.5918 

--------------------
FRAGMENT INFORMATION
--------------------
Fragment  1:    0   1   2 
Fragment  2:    3   4   5 


                    ********************************
                    * MULLIKEN POPULATION ANALYSIS *
                    ********************************

-------------------------
MULLIKEN FRAGMENT CHARGES
-------------------------
 Fragment   0 :   0.003296
 Fragment   1 :  -0.003296
Sum of fragment charges:    0.0000000

---------------------------------
MULLIKEN FRAGMENT OVERLAP CHARGES
---------------------------------
                   0          1    
      0       9.280949  -0.102679
      1      -0.102679  11.224383

-----------------------
MULLIKEN ATOMIC CHARGES
-----------------------
   0 C :   -0.305464
   1 H :    0.152549
   2 H :    0.156210
   3 O :   -0.665951
   4 H :    0.358941
   5 H :    0.303714
Sum of atomic charges:    0.0000000

--------------------------------
MULLIKEN REDUCED ORBITAL CHARGES
--------------------------------
  0 C s       :     3.701916  s :     3.701916
      pz      :     0.630064  p :     2.571532
      px      :     0.761882
      py      :     1.179586
      dz2     :     0.002820  d :     0.031267
      dxz     :     0.010768
      dyz     :     0.003760
      dx2y2   :     0.012641
      dxy     :     0.001277
      f0      :     0.000071  f :     0.000749
      f+1     :     0.000087
      f-1     :     0.000095
      f+2     :     0.000060
      f-2     :     0.000034
      f+3     :     0.000312
      f-3     :     0.000091
  1 H s       :     0.825586  s :     0.825586
      pz      :     0.006112  p :     0.021864
      px      :     0.009211
      py      :     0.006541
  2 H s       :     0.822162  s :     0.822162
      pz      :     0.003472  p :     0.021628
      px      :     0.004887
      py      :     0.013269
  3 O s       :     3.802598  s :     3.802598
      pz      :     1.680314  p :     4.841631
      px      :     1.750926
      py      :     1.410391
      dz2     :     0.003521  d :     0.020468
      dxz     :     0.006443
      dyz     :     0.000719
      dx2y2   :     0.005629
      dxy     :     0.004156
      f0      :     0.000103  f :     0.001254
      f+1     :     0.000251
      f-1     :     0.000219
      f+2     :     0.000180
      f-2     :     0.000175
      f+3     :     0.000161
      f-3     :     0.000165
  4 H s       :     0.586590  s :     0.586590
      pz      :     0.022073  p :     0.054469
      px      :     0.019110
      py      :     0.013285
  5 H s       :     0.647853  s :     0.647853
      pz      :     0.014805  p :     0.048433
      px      :     0.014857
      py      :     0.018772


                     *******************************
                     * LOEWDIN POPULATION ANALYSIS *
                     *******************************

------------------------
LOEWDIN FRAGMENT CHARGES
------------------------
 Fragment   0 :   0.068874
 Fragment   1 :  -0.068874

----------------------------
LOEWDIN FRAGMENT BOND ORDERS
----------------------------
                   0          1    
      0      12.155351   0.258169
      1       0.258169  14.479395

----------------------
LOEWDIN ATOMIC CHARGES
----------------------
   0 C :   -0.113895
   1 H :    0.089640
   2 H :    0.093129
   3 O :   -0.334786
   4 H :    0.121388
   5 H :    0.144523

-------------------------------
LOEWDIN REDUCED ORBITAL CHARGES
-------------------------------
  0 C s       :     3.364768  s :     3.364768
      pz      :     0.638522  p :     2.667175
      px      :     0.804064
      py      :     1.224590
      dz2     :     0.006827  d :     0.075144
      dxz     :     0.026553
      dyz     :     0.006459
      dx2y2   :     0.029432
      dxy     :     0.005872
      f0      :     0.000385  f :     0.006807
      f+1     :     0.000484
      f-1     :     0.000963
      f+2     :     0.002303
      f-2     :     0.000320
      f+3     :     0.001630
      f-3     :     0.000723
  1 H s       :     0.841796  s :     0.841796
      pz      :     0.019986  p :     0.068564
      px      :     0.029825
      py      :     0.018753
  2 H s       :     0.837921  s :     0.837921
      pz      :     0.010615  p :     0.068950
      px      :     0.014603
      py      :     0.043732
  3 O s       :     3.463420  s :     3.463420
      pz      :     1.663345  p :     4.838615
      px      :     1.736839
      py      :     1.438431
      dz2     :     0.005156  d :     0.030490
      dxz     :     0.009008
      dyz     :     0.001583
      dx2y2   :     0.009131
      dxy     :     0.005611
      f0      :     0.000127  f :     0.002260
      f+1     :     0.000473
      f-1     :     0.000359
      f+2     :     0.000231
      f-2     :     0.000310
      f+3     :     0.000398
      f-3     :     0.000362
  4 H s       :     0.696816  s :     0.696816
      pz      :     0.077677  p :     0.181796
      px      :     0.066681
      py      :     0.037439
  5 H s       :     0.691437  s :     0.691437
      pz      :     0.040405  p :     0.164040
      px      :     0.045391
      py      :     0.078243


                      *****************************
                      * MAYER POPULATION ANALYSIS *
                      *****************************

  NA   - Mulliken gross atomic population
  ZA   - Total nuclear charge
  QA   - Mulliken gross atomic charge
  VA   - Mayer's total valence
  BVA  - Mayer's bonded valence
  FA   - Mayer's free valence

  ATOM       NA         ZA         QA         VA         BVA        FA
  0 C      6.3055     6.0000    -0.3055     1.9330     1.9330     0.0000
  1 H      0.8475     1.0000     0.1525     0.9454     0.9454     0.0000
  2 H      0.8438     1.0000     0.1562     0.9436     0.9436     0.0000
  3 O      8.6660     8.0000    -0.6660     1.7845     1.7845     0.0000
  4 H      0.6411     1.0000     0.3589     0.8741     0.8741    -0.0000
  5 H      0.6963     1.0000     0.3037     0.9292     0.9292     0.0000

  Mayer bond orders larger than 0.100000
B(  0-C ,  1-H ) :   0.9492 B(  0-C ,  2-H ) :   0.9451 B(  3-O ,  4-H ) :   0.8564 
B(  3-O ,  5-H ) :   0.9147 

-------
TIMINGS
-------

Total SCF time: 0 days 0 hours 0 min 4 sec 

Total time                  ....       4.244 sec
Sum of individual times     ....       4.094 sec  ( 96.5%)

Fock matrix formation       ....       3.776 sec  ( 89.0%)
  XC integration            ....       0.618 sec  ( 16.4% of F)
    Basis function eval.    ....       0.235 sec  ( 38.1% of XC)
    Density eval.           ....       0.098 sec  ( 15.9% of XC)
    XC-Functional eval.     ....       0.094 sec  ( 15.2% of XC)
    XC-Potential eval.      ....       0.157 sec  ( 25.5% of XC)
Diagonalization             ....       0.006 sec  (  0.1%)
Density matrix formation    ....       0.001 sec  (  0.0%)
Population analysis         ....       0.001 sec  (  0.0%)
Initial guess               ....       0.118 sec  (  2.8%)
Orbital Transformation      ....       0.000 sec  (  0.0%)
Orbital Orthonormalization  ....       0.000 sec  (  0.0%)
DIIS solution               ....       0.002 sec  (  0.0%)
SOSCF solution              ....       0.003 sec  (  0.1%)
Grid generation             ....       0.188 sec  (  4.4%)


-------------------------------------------------------------------------------
                          DFT DISPERSION CORRECTION                            
                                                                               
                              DFTD3 V3.1  Rev 1                                
                          USING Becke-Johnson damping                          
-------------------------------------------------------------------------------
The PBE0 functional is recognized
Active option DFTDOPT                   ...         4   

molecular C6(AA) [au] = 243.023339 


            DFT-D V3
 parameters
 s6 scaling factor         :     1.0000 
 a1 scaling factor         :     0.4145 
 s8 scaling factor         :     1.2177 
 a2 scaling factor         :     4.8593 
 ad hoc parameters k1-k3   :    16.0000     1.3333    -4.0000 

 Edisp/kcal,au: -0.827537252973  -0.001318764415 
 E6   /kcal   :  -0.555370569 
 E8   /kcal   :  -0.272166684 
 % E8         :  32.888753093 

-------------------------   ----------------
Dispersion correction           -0.001318764
-------------------------   ----------------


-------------------------   --------------------
FINAL SINGLE POINT ENERGY      -115.476222575554
-------------------------   --------------------

------------------------------------------------------------------------------
                         ORCA SCF GRADIENT CALCULATION
------------------------------------------------------------------------------

Gradient of the Kohn-Sham DFT energy:
Kohn-Sham wavefunction type      ... RKS
Hartree-Fock exchange scaling    ...    0.250
Number of operators              ...    1
Number of atoms                  ...    6
Basis set dimensions             ...   86
Integral neglect threshold       ... 2.5e-11
Integral primitive cutoff        ... 2.5e-12

Nuclear repulsion gradient       ... done
One Electron Gradient            ... done
Pre-screening matrix             ... done
Starting the two electron gradient:
Two electron gradient done
Exchange-correlation gradient    ... done
Dispersion correction            ... done

------------------
CARTESIAN GRADIENT
------------------

   1   C   :    0.000942201    0.001522309   -0.001583628
   2   H   :   -0.001112500    0.000167953    0.000924854
   3   H   :    0.000343379   -0.001278833    0.000283035
   4   O   :   -0.001832216    0.001773068    0.000988370
   5   H   :    0.001395387    0.000398297   -0.001257220
   6   H   :    0.000263749   -0.002582793    0.000644589

Difference to translation invariance:
           :    0.0000000000    0.0000000000    0.0000000000

Norm of the cartesian gradient     ...    0.0052903293
RMS gradient                       ...    0.0012469426
MAX gradient                       ...    0.0025827928

-------
TIMINGS
-------

Total SCF gradient time            ...        1.591 sec

One electron gradient       ....       0.012 sec  (  0.8%)
Prescreening matrices       ....       0.044 sec  (  2.8%)
Two electron gradient       ....       0.905 sec  ( 56.9%)
XC gradient                 ....       0.492 sec  ( 30.9%)
------------------------------------------------------------------------------
                         ORCA GEOMETRY RELAXATION STEP
------------------------------------------------------------------------------

Reading the OPT-File                    .... done
Getting information on internals        .... done
Copying old internal coords+grads       .... done
Making the new internal coordinates     .... (new redundants).... done
Validating the new internal coordinates .... (new redundants).... done
Calculating the B-matrix                .... done
Calculating the G,G- and P matrices     .... done
Transforming gradient to internals      .... done
Projecting the internal gradient        .... done
Number of atoms                         ....   6
Number of internal coordinates          ....  13
Current Energy                          ....  -115.476222576 Eh
Current gradient norm                   ....     0.005290329 Eh/bohr
Maximum allowed component of the step   ....  0.300
Current trust radius                    ....  0.300
Evaluating the initial hessian          ....  (Almloef) done
Projecting the Hessian                  .... done
Forming the augmented Hessian           .... done
Diagonalizing the augmented Hessian     .... done
Last element of RFO vector              ....  0.995882264
Lowest eigenvalues of augmented Hessian:
 -0.000080933  0.001556096  0.001820952  0.010537268  0.178545289
Length of the computed step             ....  0.091030868
The final length of the internal step   ....  0.091030868
Converting the step to cartesian space:
 Initial RMS(Int)=    0.0252474203
Transforming coordinates:
 Iter   0:  RMS(Cart)=    0.0197596889 RMS(Int)=    0.0253727043
 Iter   1:  RMS(Cart)=    0.0002164280 RMS(Int)=    0.0003735514
 Iter   2:  RMS(Cart)=    0.0000077150 RMS(Int)=    0.0000084098
 Iter   3:  RMS(Cart)=    0.0000002942 RMS(Int)=    0.0000005194
 Iter   4:  RMS(Cart)=    0.0000000107 RMS(Int)=    0.0000000113
done
Storing new coordinates                 .... done

                                .--------------------.
          ----------------------|Geometry convergence|-------------------------
          Item                value                   Tolerance       Converged
          ---------------------------------------------------------------------
          RMS gradient        0.0011860293            0.0001000000      NO
          MAX gradient        0.0026261046            0.0003000000      NO
          RMS step            0.0252474203            0.0020000000      NO
          MAX step            0.0662047059            0.0040000000      NO
          ........................................................
          Max(Bonds)      0.0280      Max(Angles)    0.24
          Max(Dihed)        3.79      Max(Improp)    0.00
          ---------------------------------------------------------------------

The optimization has not yet converged - more geometry cycles are needed


    ---------------------------------------------------------------------------
                         Redundant Internal Coordinates
                            (Angstroem and degrees)

        Definition                    Value    dE/dq     Step     New-Value
    ----------------------------------------------------------------------------
     1. B(H   1,C   0)                1.1053 -0.001451  0.0023    1.1075   
     2. B(H   2,C   0)                1.1055 -0.001354  0.0021    1.1076   
     3. B(H   4,O   3)                0.9764  0.002407 -0.0026    0.9738   
     4. B(H   4,C   0)                2.0521  0.000560 -0.0280    2.0241   
     5. B(H   5,O   3)                0.9611  0.002626 -0.0027    0.9584   
     6. A(H   1,C   0,H   2)          103.66  0.000066    0.01    103.66   
     7. A(H   1,C   0,H   4)          141.19  0.000100   -0.00    141.19   
     8. A(H   2,C   0,H   4)          115.05 -0.000168    0.08    115.14   
     9. A(H   4,O   3,H   5)          105.63  0.000793   -0.14    105.48   
    10. A(C   0,H   4,O   3)          166.82 -0.000771    0.24    167.06   
    11. D(O   3,H   4,C   0,H   2)    -10.09 -0.000047    1.81     -8.29   
    12. D(C   0,H   4,O   3,H   5)   -171.11 -0.000252    0.06   -171.05   
    13. D(O   3,H   4,C   0,H   1)    165.51 -0.000112    3.79    169.30   
    ----------------------------------------------------------------------------

         *************************************************************
         *                GEOMETRY OPTIMIZATION CYCLE   2            *
         *************************************************************
---------------------------------
CARTESIAN COORDINATES (ANGSTROEM)
---------------------------------
  C      0.183702    0.076042    0.214679
  H      1.059971   -0.016233   -0.456334
  H     -0.158829    1.117294    0.055828
  O     -1.477929   -1.291129    2.277958
  H     -0.874523   -0.978056    1.580664
  H     -1.206097   -2.190612    2.466668

----------------------------
CARTESIAN COORDINATES (A.U.)
----------------------------
  NO LB      ZA    FRAG     MASS         X           Y           Z
   0 C     6.0000    1    12.011    0.347146    0.143698    0.405684
   1 H     1.0000    1     1.008    2.003055   -0.030676   -0.862346
   2 H     1.0000    1     1.008   -0.300144    2.111379    0.105500
   3 O     8.0000    2    15.999   -2.792881   -2.439881    4.304717
   4 H     1.0000    2     1.008   -1.652610   -1.848258    2.987021
   5 H     1.0000    2     1.008   -2.279193   -4.139657    4.661327

----------------------------------------------
CARTESIAN COORDINATES OF FRAGMENTS (ANGSTROEM)
----------------------------------------------

 FRAGMENT 1 
  C     0.183702    0.076042    0.214679
  H     1.059971   -0.016233   -0.456334
  H    -0.158829    1.117294    0.055828

 FRAGMENT 2 
  O    -1.477929   -1.291129    2.277958
  H    -0.874523   -0.978056    1.580664
  H    -1.206097   -2.190612    2.466668

--------------------------------
INTERNAL COORDINATES (ANGSTROEM)
--------------------------------
 C      0   0   0     0.000000000000     0.00000000     0.00000000
 H      1   0   0     1.107529029371     0.00000000     0.00000000
 H      1   2   0     1.107594946785   103.65732696     0.00000000
 O      1   2   3     2.981156932390   145.29634125   183.61298274
 H      4   1   2     0.973824004819     8.74454474   348.20724686
 H      4   1   2     0.958421953572   114.11622623   357.65734308

---------------------------
INTERNAL COORDINATES (A.U.)
---------------------------
 C      0   0   0     0.000000000000     0.00000000     0.00000000
 H      1   0   0     2.092926550880     0.00000000     0.00000000
 H      1   2   0     2.093051116738   103.65732696     0.00000000
 O      1   2   3     5.633570164458   145.29634125   183.61298274
 H      4   1   2     1.840260671747     8.74454474   348.20724686
 H      4   1   2     1.811155012988   114.11622623   357.65734308


Diagonalization of the overlap matrix:
Smallest eigenvalue                        ... 3.787e-03
Time for diagonalization                   ...    0.002 sec
Threshold for overlap eigenvalues          ... 1.000e-08
Number of eigenvalues below threshold      ... 0
Time for construction of square roots      ...    0.000 sec
Total time needed                          ...    0.003 sec

-------------------
DFT GRID GENERATION
-------------------

General Integration Accuracy     IntAcc      ...  4.340
Radial Grid Type                 RadialGrid  ... Gauss-Chebyshev
Angular Grid (max. acc.)         AngularGrid ... Lebedev-110
Angular grid pruning method      GridPruning ... 3 (G Style)
Weight generation scheme         WeightScheme... Becke
Basis function cutoff            BFCut       ...    1.0000e-11
Integration weight cutoff        WCut        ...    1.0000e-14
Grids for H and He will be reduced by one unit

# of grid points (after initial pruning)     ...   6548 (   0.0 sec)
# of grid points (after weights+screening)   ...   6439 (   0.0 sec)
nearest neighbour list constructed           ...    0.0 sec
Grid point re-assignment to atoms done       ...    0.0 sec
Grid point division into batches done        ...    0.0 sec
Reduced shell lists constructed in    0.0 sec

Total number of grid points                  ...     6439
Total number of batches                      ...      104
Average number of points per batch           ...       61
Average number of grid points per atom       ...     1073
Average number of shells per batch           ...    28.94 (76.17%)
Average number of basis functions per batch  ...    65.57 (76.25%)
Average number of large shells per batch     ...    24.24 (83.74%)
Average number of large basis fcns per batch ...    54.05 (82.43%)
Maximum spatial batch extension              ...  22.26, 21.59, 22.17 au
Average spatial batch extension              ...   5.43,  4.81,  5.00 au

Time for grid setup =    0.028 sec

--------------
SCF ITERATIONS
--------------
ITER       Energy         Delta-E        Max-DP      RMS-DP      [F,P]     Damp
               ***  Starting incremental Fock matrix formation  ***
                      *** Initiating the SOSCF procedure ***
                      *** Re-Reading the Fockian *** 
                      *** Removing any level shift *** 
ITER      Energy       Delta-E        Grad      Rot      Max-DP    RMS-DP
  0   -115.47483710 -115.4748371034  0.003197  0.003197  0.003208  0.000161
               *** Restarting incremental Fock matrix formation ***
  1   -115.47498490  -0.0001477965  0.000903  0.005146  0.001799  0.000107
  2   -115.47500923  -0.0000243348  0.000345  0.002588  0.000886  0.000047
  3   -115.47501166  -0.0000024212  0.000313  0.000827  0.000326  0.000017
  4   -115.47501237  -0.0000007097  0.000154  0.000229  0.000136  0.000009
  5   -115.47501258  -0.0000002124  0.000069  0.000090  0.000042  0.000002
  6   -115.47501260  -0.0000000262  0.000008  0.000067  0.000025  0.000001
  7   -115.47501261  -0.0000000020  0.000003  0.000009  0.000006  0.000000
                  ***Gradient check signals convergence***
              ***Rediagonalizing the Fockian in SOSCF/NRSCF***

               *****************************************************
               *                     SUCCESS                       *
               *           SCF CONVERGED AFTER   8 CYCLES          *
               *****************************************************

Setting up the final grid:

General Integration Accuracy     IntAcc      ...  4.670
Radial Grid Type                 RadialGrid  ... Gauss-Chebyshev
Angular Grid (max. acc.)         AngularGrid ... Lebedev-302
Angular grid pruning method      GridPruning ... 3 (G Style)
Weight generation scheme         WeightScheme... Becke
Basis function cutoff            BFCut       ...    1.0000e-11
Integration weight cutoff        WCut        ...    1.0000e-14
Grids for H and He will be reduced by one unit

# of grid points (after initial pruning)     ...  26000 (   0.0 sec)
# of grid points (after weights+screening)   ...  25471 (   0.0 sec)
nearest neighbour list constructed           ...    0.0 sec
Grid point re-assignment to atoms done       ...    0.0 sec
Grid point division into batches done        ...    0.1 sec
Reduced shell lists constructed in    0.1 sec

Total number of grid points                  ...    25471
Total number of batches                      ...      401
Average number of points per batch           ...       63
Average number of grid points per atom       ...     4245
Average number of shells per batch           ...    26.37 (69.39%)
Average number of basis functions per batch  ...    59.30 (68.95%)
Average number of large shells per batch     ...    22.02 (83.51%)
Average number of large basis fcns per batch ...    48.97 (82.57%)
Maximum spatial batch extension              ...  20.64, 20.64, 23.71 au
Average spatial batch extension              ...   3.22,  3.08,  3.24 au

Final grid set up in    0.2 sec
Final integration                            ... done (   0.2 sec)
Change in XC energy                          ...     0.000089237
Integrated number of electrons               ...    17.999996431
Previous integrated no of electrons          ...    17.999700180
Total Energy       :         -115.47492337 Eh           -3142.23241 eV
  Last Energy change         ...   -1.5950e-10  Tolerance :   1.0000e-08
  Last MAX-Density change    ...    2.1583e-06  Tolerance :   1.0000e-07
             **** THE GBW FILE WAS UPDATED (input.gbw) ****
             **** DENSITY FILE WAS UPDATED (input.scfp) ****
             **** ENERGY FILE WAS UPDATED (input.en.tmp) ****
             **** THE GBW FILE WAS UPDATED (input.gbw) ****
             **** DENSITY FILE WAS UPDATED (input.scfp) ****
Total SCF time: 0 days 0 hours 0 min 3 sec 


-------------------------------------------------------------------------------
                          DFT DISPERSION CORRECTION                            
                                                                               
                              DFTD3 V3.1  Rev 1                                
                          USING Becke-Johnson damping                          
-------------------------------------------------------------------------------
-------------------------   ----------------
Dispersion correction           -0.001329186
-------------------------   ----------------


-------------------------   --------------------
FINAL SINGLE POINT ENERGY      -115.476252554907
-------------------------   --------------------

------------------------------------------------------------------------------
                         ORCA SCF GRADIENT CALCULATION
------------------------------------------------------------------------------

Gradient of the Kohn-Sham DFT energy:
Kohn-Sham wavefunction type      ... RKS
Hartree-Fock exchange scaling    ...    0.250
Number of operators              ...    1
Number of atoms                  ...    6
Basis set dimensions             ...   86
Integral neglect threshold       ... 2.5e-11
Integral primitive cutoff        ... 2.5e-12

Nuclear repulsion gradient       ... done
One Electron Gradient            ... done
Pre-screening matrix             ... done
Starting the two electron gradient:
Two electron gradient done
Exchange-correlation gradient    ... done
Dispersion correction            ... done

------------------
CARTESIAN GRADIENT
------------------

   1   C   :    0.000068534    0.000240033   -0.000011219
   2   H   :   -0.000060145   -0.000040418    0.000068036
   3   H   :   -0.000141918   -0.000093674    0.000093823
   4   O   :    0.000563661    0.000577370   -0.000657392
   5   H   :   -0.000283620   -0.000813239    0.000640117
   6   H   :   -0.000146512    0.000129929   -0.000133366

Difference to translation invariance:
           :   -0.0000000000   -0.0000000000    0.0000000000

Norm of the cartesian gradient     ...    0.0015495003
RMS gradient                       ...    0.0003652207
MAX gradient                       ...    0.0008132388

-------
TIMINGS
-------

Total SCF gradient time            ...        1.591 sec

One electron gradient       ....       0.012 sec  (  0.7%)
Prescreening matrices       ....       0.045 sec  (  2.8%)
Two electron gradient       ....       0.909 sec  ( 57.1%)
XC gradient                 ....       0.489 sec  ( 30.7%)
------------------------------------------------------------------------------
                         ORCA GEOMETRY RELAXATION STEP
------------------------------------------------------------------------------

Reading the OPT-File                    .... done
Getting information on internals        .... done
Copying old internal coords+grads       .... done
Making the new internal coordinates     .... (new redundants).... done
Validating the new internal coordinates .... (new redundants).... done
Calculating the B-matrix                .... done
Calculating the G,G- and P matrices     .... done
Transforming gradient to internals      .... done
Projecting the internal gradient        .... done
Number of atoms                         ....   6
Number of internal coordinates          ....  13
Current Energy                          ....  -115.476252555 Eh
Current gradient norm                   ....     0.001549500 Eh/bohr
Maximum allowed component of the step   ....  0.300
Current trust radius                    ....  0.300
Updating the Hessian (BFGS)             .... done
Forming the augmented Hessian           .... done
Diagonalizing the augmented Hessian     .... done
Last element of RFO vector              ....  0.995475971
Lowest eigenvalues of augmented Hessian:
 -0.000019898  0.001308342  0.001953592  0.011733580  0.170109448
Length of the computed step             ....  0.095445440
The final length of the internal step   ....  0.095445440
Converting the step to cartesian space:
 Initial RMS(Int)=    0.0264718020
Transforming coordinates:
 Iter   0:  RMS(Cart)=    0.0201862115 RMS(Int)=    0.0268544880
 Iter   1:  RMS(Cart)=    0.0004922424 RMS(Int)=    0.0009361830
 Iter   2:  RMS(Cart)=    0.0000231775 RMS(Int)=    0.0000270972
 Iter   3:  RMS(Cart)=    0.0000011260 RMS(Int)=    0.0000026494
 Iter   4:  RMS(Cart)=    0.0000000628 RMS(Int)=    0.0000000554
done
Storing new coordinates                 .... done

                                .--------------------.
          ----------------------|Geometry convergence|-------------------------
          Item                value                   Tolerance       Converged
          ---------------------------------------------------------------------
          Energy change      -0.0000299794            0.0000050000      NO
          RMS gradient        0.0003907440            0.0001000000      NO
          MAX gradient        0.0010451158            0.0003000000      NO
          RMS step            0.0264718020            0.0020000000      NO
          MAX step            0.0938651271            0.0040000000      NO
          ........................................................
          Max(Bonds)      0.0012      Max(Angles)    0.31
          Max(Dihed)        5.38      Max(Improp)    0.00
          ---------------------------------------------------------------------

The optimization has not yet converged - more geometry cycles are needed


    ---------------------------------------------------------------------------
                         Redundant Internal Coordinates
                            (Angstroem and degrees)

        Definition                    Value    dE/dq     Step     New-Value
    ----------------------------------------------------------------------------
     1. B(H   1,C   0)                1.1075 -0.000082  0.0007    1.1082   
     2. B(H   2,C   0)                1.1076 -0.000063  0.0006    1.1082   
     3. B(H   4,O   3)                0.9738 -0.001045  0.0005    0.9743   
     4. B(H   4,C   0)                2.0241 -0.000115 -0.0012    2.0228   
     5. B(H   5,O   3)                0.9584 -0.000197 -0.0005    0.9580   
     6. A(H   1,C   0,H   2)          103.66  0.000162   -0.09    103.57   
     7. A(H   1,C   0,H   4)          141.18  0.000038   -0.10    141.08   
     8. A(H   2,C   0,H   4)          115.13 -0.000197   -0.01    115.12   
     9. A(H   4,O   3,H   5)          105.48  0.000022   -0.04    105.45   
    10. A(C   0,H   4,O   3)          167.06 -0.000839    0.31    167.37   
    11. D(O   3,H   4,C   0,H   2)     -8.29 -0.000155    5.38     -2.91   
    12. D(C   0,H   4,O   3,H   5)   -171.05 -0.000187    0.05   -171.00   
    13. D(O   3,H   4,C   0,H   1)    169.30  0.000013    0.91    170.22   
    ----------------------------------------------------------------------------

         *************************************************************
         *                GEOMETRY OPTIMIZATION CYCLE   3            *
         *************************************************************
---------------------------------
CARTESIAN COORDINATES (ANGSTROEM)
---------------------------------
  C      0.170965    0.069755    0.201383
  H      1.060370   -0.017551   -0.453930
  H     -0.145263    1.123888    0.071367
  O     -1.489727   -1.298252    2.264872
  H     -0.882548   -0.979821    1.572666
  H     -1.187503   -2.180713    2.483105

----------------------------
CARTESIAN COORDINATES (A.U.)
----------------------------
  NO LB      ZA    FRAG     MASS         X           Y           Z
   0 C     6.0000    1    12.011    0.323077    0.131818    0.380558
   1 H     1.0000    1     1.008    2.003808   -0.033167   -0.857803
   2 H     1.0000    1     1.008   -0.274507    2.123840    0.134864
   3 O     8.0000    2    15.999   -2.815175   -2.453342    4.279988
   4 H     1.0000    2     1.008   -1.667774   -1.851593    2.971908
   5 H     1.0000    2     1.008   -2.244056   -4.120950    4.692388

----------------------------------------------
CARTESIAN COORDINATES OF FRAGMENTS (ANGSTROEM)
----------------------------------------------

 FRAGMENT 1 
  C     0.170965    0.069755    0.201383
  H     1.060370   -0.017551   -0.453930
  H    -0.145263    1.123888    0.071367

 FRAGMENT 2 
  O    -1.489727   -1.298252    2.264872
  H    -0.882548   -0.979821    1.572666
  H    -1.187503   -2.180713    2.483105

--------------------------------
INTERNAL COORDINATES (ANGSTROEM)
--------------------------------
 C      0   0   0     0.000000000000     0.00000000     0.00000000
 H      1   0   0     1.108195532834     0.00000000     0.00000000
 H      1   2   0     1.108196509430   103.56681149     0.00000000
 O      1   2   3     2.981162658724   145.10837712   187.61945190
 H      4   1   2     0.974276328387     8.53448537   349.24230083
 H      4   1   2     0.957967023184   113.86946241   358.73142720

---------------------------
INTERNAL COORDINATES (A.U.)
---------------------------
 C      0   0   0     0.000000000000     0.00000000     0.00000000
 H      1   0   0     2.094186059892     0.00000000     0.00000000
 H      1   2   0     2.094187905390   103.56681149     0.00000000
 O      1   2   3     5.633580985660   145.10837712   187.61945190
 H      4   1   2     1.841115439414     8.53448537   349.24230083
 H      4   1   2     1.810295319145   113.86946241   358.73142720


Diagonalization of the overlap matrix:
Smallest eigenvalue                        ... 3.786e-03
Time for diagonalization                   ...    0.002 sec
Threshold for overlap eigenvalues          ... 1.000e-08
Number of eigenvalues below threshold      ... 0
Time for construction of square roots      ...    0.001 sec
Total time needed                          ...    0.003 sec

-------------------
DFT GRID GENERATION
-------------------

General Integration Accuracy     IntAcc      ...  4.340
Radial Grid Type                 RadialGrid  ... Gauss-Chebyshev
Angular Grid (max. acc.)         AngularGrid ... Lebedev-110
Angular grid pruning method      GridPruning ... 3 (G Style)
Weight generation scheme         WeightScheme... Becke
Basis function cutoff            BFCut       ...    1.0000e-11
Integration weight cutoff        WCut        ...    1.0000e-14
Grids for H and He will be reduced by one unit

# of grid points (after initial pruning)     ...   6548 (   0.0 sec)
# of grid points (after weights+screening)   ...   6435 (   0.0 sec)
nearest neighbour list constructed           ...    0.0 sec
Grid point re-assignment to atoms done       ...    0.0 sec
Grid point division into batches done        ...    0.0 sec
Reduced shell lists constructed in    0.0 sec

Total number of grid points                  ...     6435
Total number of batches                      ...      104
Average number of points per batch           ...       61
Average number of grid points per atom       ...     1072
Average number of shells per batch           ...    28.94 (76.17%)
Average number of basis functions per batch  ...    65.69 (76.38%)
Average number of large shells per batch     ...    24.36 (84.17%)
Average number of large basis fcns per batch ...    54.32 (82.70%)
Maximum spatial batch extension              ...  24.18, 21.59, 22.17 au
Average spatial batch extension              ...   5.38,  4.79,  5.12 au

Time for grid setup =    0.028 sec

--------------
SCF ITERATIONS
--------------
ITER       Energy         Delta-E        Max-DP      RMS-DP      [F,P]     Damp
               ***  Starting incremental Fock matrix formation  ***
  0   -115.4745294012   0.000000000000 0.00138743  0.00006891  0.0107907 0.7000
                      *** Initiating the SOSCF procedure ***
                      *** Re-Reading the Fockian *** 
                      *** Removing any level shift *** 
ITER      Energy       Delta-E        Grad      Rot      Max-DP    RMS-DP
  1   -115.47463673  -0.0001073246  0.001541  0.001541  0.004116  0.000233
               *** Restarting incremental Fock matrix formation ***
  2   -115.47496113  -0.0003244090  0.001719  0.012224  0.003331  0.000168
  3   -115.47503123  -0.0000700933  0.000968  0.008308  0.002504  0.000114
  4   -115.47504803  -0.0000168022  0.000462  0.000619  0.000305  0.000017
  5   -115.47504944  -0.0000014066  0.000106  0.000128  0.000152  0.000007
  6   -115.47504944   0.0000000013  0.000116  0.000072  0.000071  0.000003
  7   -115.47504952  -0.0000000881  0.000004  0.000030  0.000014  0.000001
  8   -115.47504952  -0.0000000003  0.000004  0.000004  0.000006  0.000000
                 **** Energy Check signals convergence ****
              ***Rediagonalizing the Fockian in SOSCF/NRSCF***

               *****************************************************
               *                     SUCCESS                       *
               *           SCF CONVERGED AFTER   9 CYCLES          *
               *****************************************************

Setting up the final grid:

General Integration Accuracy     IntAcc      ...  4.670
Radial Grid Type                 RadialGrid  ... Gauss-Chebyshev
Angular Grid (max. acc.)         AngularGrid ... Lebedev-302
Angular grid pruning method      GridPruning ... 3 (G Style)
Weight generation scheme         WeightScheme... Becke
Basis function cutoff            BFCut       ...    1.0000e-11
Integration weight cutoff        WCut        ...    1.0000e-14
Grids for H and He will be reduced by one unit

# of grid points (after initial pruning)     ...  26000 (   0.0 sec)
# of grid points (after weights+screening)   ...  25465 (   0.0 sec)
nearest neighbour list constructed           ...    0.0 sec
Grid point re-assignment to atoms done       ...    0.0 sec
Grid point division into batches done        ...    0.1 sec
Reduced shell lists constructed in    0.1 sec

Total number of grid points                  ...    25465
Total number of batches                      ...      401
Average number of points per batch           ...       63
Average number of grid points per atom       ...     4244
Average number of shells per batch           ...    26.39 (69.46%)
Average number of basis functions per batch  ...    59.22 (68.86%)
Average number of large shells per batch     ...    22.04 (83.52%)
Average number of large basis fcns per batch ...    49.01 (82.76%)
Maximum spatial batch extension              ...  20.64, 20.64, 23.71 au
Average spatial batch extension              ...   3.19,  3.06,  3.30 au

Final grid set up in    0.2 sec
Final integration                            ... done (   0.2 sec)
Change in XC energy                          ...     0.000147264
Integrated number of electrons               ...    17.999995363
Previous integrated no of electrons          ...    17.999773336
Total Energy       :         -115.47490226 Eh           -3142.23184 eV
  Last Energy change         ...   -1.8468e-10  Tolerance :   1.0000e-08
  Last MAX-Density change    ...    1.0637e-06  Tolerance :   1.0000e-07
             **** THE GBW FILE WAS UPDATED (input.gbw) ****
             **** DENSITY FILE WAS UPDATED (input.scfp) ****
             **** ENERGY FILE WAS UPDATED (input.en.tmp) ****
             **** THE GBW FILE WAS UPDATED (input.gbw) ****
             **** DENSITY FILE WAS UPDATED (input.scfp) ****
Total SCF time: 0 days 0 hours 0 min 3 sec 


-------------------------------------------------------------------------------
                          DFT DISPERSION CORRECTION                            
                                                                               
                              DFTD3 V3.1  Rev 1                                
                          USING Becke-Johnson damping                          
-------------------------------------------------------------------------------
-------------------------   ----------------
Dispersion correction           -0.001329675
-------------------------   ----------------


-------------------------   --------------------
FINAL SINGLE POINT ENERGY      -115.476231935036
-------------------------   --------------------

------------------------------------------------------------------------------
                         ORCA SCF GRADIENT CALCULATION
------------------------------------------------------------------------------

Gradient of the Kohn-Sham DFT energy:
Kohn-Sham wavefunction type      ... RKS
Hartree-Fock exchange scaling    ...    0.250
Number of operators              ...    1
Number of atoms                  ...    6
Basis set dimensions             ...   86
Integral neglect threshold       ... 2.5e-11
Integral primitive cutoff        ... 2.5e-12

Nuclear repulsion gradient       ... done
One Electron Gradient            ... done
Pre-screening matrix             ... done
Starting the two electron gradient:
Two electron gradient done
Exchange-correlation gradient    ... done
Dispersion correction            ... done

------------------
CARTESIAN GRADIENT
------------------

   1   C   :   -0.000824491   -0.000451769   -0.000519510
   2   H   :    0.000397215    0.000099735    0.000088380
   3   H   :    0.000049665    0.000308215    0.000270544
   4   O   :    0.000097359   -0.000154167   -0.000608215
   5   H   :    0.000492185   -0.000411634    0.000973886
   6   H   :   -0.000211932    0.000609620   -0.000205084

Difference to translation invariance:
           :   -0.0000000000    0.0000000000    0.0000000000

Norm of the cartesian gradient     ...    0.0019292205
RMS gradient                       ...    0.0004547216
MAX gradient                       ...    0.0009738860

-------
TIMINGS
-------

Total SCF gradient time            ...        1.613 sec

One electron gradient       ....       0.012 sec  (  0.7%)
Prescreening matrices       ....       0.044 sec  (  2.7%)
Two electron gradient       ....       0.921 sec  ( 57.1%)
XC gradient                 ....       0.505 sec  ( 31.3%)
------------------------------------------------------------------------------
                         ORCA GEOMETRY RELAXATION STEP
------------------------------------------------------------------------------

Reading the OPT-File                    .... done
Getting information on internals        .... done
Copying old internal coords+grads       .... done
Making the new internal coordinates     .... (new redundants).... done
Validating the new internal coordinates .... (new redundants).... done
Calculating the B-matrix                .... done
Calculating the G,G- and P matrices     .... done
Transforming gradient to internals      .... done
Projecting the internal gradient        .... done
Number of atoms                         ....   6
Number of internal coordinates          ....  13
Current Energy                          ....  -115.476231935 Eh
Current gradient norm                   ....     0.001929220 Eh/bohr
Maximum allowed component of the step   ....  0.300
Current trust radius                    ....  0.300
Updating the Hessian (BFGS)             .... done
Forming the augmented Hessian           .... done
Diagonalizing the augmented Hessian     .... done
Last element of RFO vector              ....  0.997383802
Lowest eigenvalues of augmented Hessian:
 -0.000047513  0.001010817  0.011096623  0.012138504  0.132813547
Length of the computed step             ....  0.072477591
The final length of the internal step   ....  0.072477591
Converting the step to cartesian space:
 Initial RMS(Int)=    0.0201016670
Transforming coordinates:
 Iter   0:  RMS(Cart)=    0.0128083592 RMS(Int)=    0.0201491224
 Iter   1:  RMS(Cart)=    0.0003294183 RMS(Int)=    0.0003788232
 Iter   2:  RMS(Cart)=    0.0000054980 RMS(Int)=    0.0000095451
 Iter   3:  RMS(Cart)=    0.0000002809 RMS(Int)=    0.0000003128
 Iter   4:  RMS(Cart)=    0.0000000058 RMS(Int)=    0.0000000103
done
Storing new coordinates                 .... done

                                .--------------------.
          ----------------------|Geometry convergence|-------------------------
          Item                value                   Tolerance       Converged
          ---------------------------------------------------------------------
          Energy change       0.0000206199            0.0000050000      NO
          RMS gradient        0.0003982640            0.0001000000      NO
          MAX gradient        0.0007175741            0.0003000000      NO
          RMS step            0.0201016670            0.0020000000      NO
          MAX step            0.0673008775            0.0040000000      NO
          ........................................................
          Max(Bonds)      0.0054      Max(Angles)    0.29
          Max(Dihed)        3.86      Max(Improp)    0.00
          ---------------------------------------------------------------------

The optimization has not yet converged - more geometry cycles are needed


    ---------------------------------------------------------------------------
                         Redundant Internal Coordinates
                            (Angstroem and degrees)

        Definition                    Value    dE/dq     Step     New-Value
    ----------------------------------------------------------------------------
     1. B(H   1,C   0)                1.1082  0.000260  0.0001    1.1083   
     2. B(H   2,C   0)                1.1082  0.000244  0.0000    1.1082   
     3. B(H   4,O   3)                0.9743 -0.000651  0.0010    0.9753   
     4. B(H   4,C   0)                2.0228 -0.000110  0.0054    2.0282   
     5. B(H   5,O   3)                0.9580 -0.000679  0.0003    0.9582   
     6. A(H   1,C   0,H   2)          103.57  0.000059    0.02    103.59   
     7. A(H   1,C   0,H   4)          141.08  0.000041    0.06    141.14   
     8. A(H   2,C   0,H   4)          115.12 -0.000168    0.15    115.27   
     9. A(H   4,O   3,H   5)          105.45 -0.000055   -0.01    105.44   
    10. A(C   0,H   4,O   3)          167.37 -0.000718    0.29    167.66   
    11. D(O   3,H   4,C   0,H   2)     -2.91  0.000570   -1.38     -4.29   
    12. D(C   0,H   4,O   3,H   5)   -171.00 -0.000031    0.04   -170.96   
    13. D(O   3,H   4,C   0,H   1)    170.22 -0.000401    3.86    174.07   
    ----------------------------------------------------------------------------

         *************************************************************
         *                GEOMETRY OPTIMIZATION CYCLE   4            *
         *************************************************************
---------------------------------
CARTESIAN COORDINATES (ANGSTROEM)
---------------------------------
  C      0.185087    0.078584    0.215645
  H      1.055079   -0.020538   -0.463714
  H     -0.147250    1.124601    0.062049
  O     -1.495531   -1.303413    2.263905
  H     -0.882913   -0.977783    1.578402
  H     -1.188176   -2.184146    2.483175

----------------------------
CARTESIAN COORDINATES (A.U.)
----------------------------
  NO LB      ZA    FRAG     MASS         X           Y           Z
   0 C     6.0000    1    12.011    0.349763    0.148502    0.407510
   1 H     1.0000    1     1.008    1.993810   -0.038811   -0.876293
   2 H     1.0000    1     1.008   -0.278263    2.125188    0.117257
   3 O     8.0000    2    15.999   -2.826145   -2.463094    4.278161
   4 H     1.0000    2     1.008   -1.668464   -1.847741    2.982747
   5 H     1.0000    2     1.008   -2.245328   -4.127437    4.692521

----------------------------------------------
CARTESIAN COORDINATES OF FRAGMENTS (ANGSTROEM)
----------------------------------------------

 FRAGMENT 1 
  C     0.185087    0.078584    0.215645
  H     1.055079   -0.020538   -0.463714
  H    -0.147250    1.124601    0.062049

 FRAGMENT 2 
  O    -1.495531   -1.303413    2.263905
  H    -0.882913   -0.977783    1.578402
  H    -1.188176   -2.184146    2.483175

--------------------------------
INTERNAL COORDINATES (ANGSTROEM)
--------------------------------
 C      0   0   0     0.000000000000     0.00000000     0.00000000
 H      1   0   0     1.108259906481     0.00000000     0.00000000
 H      1   2   0     1.108238052809   103.58377286     0.00000000
 O      1   2   3     2.988271045156   145.11449318   182.24514952
 H      4   1   2     0.975321432301     8.34200254   353.49422738
 H      4   1   2     0.958246319951   113.67307185     3.00905856

---------------------------
INTERNAL COORDINATES (A.U.)
---------------------------
 C      0   0   0     0.000000000000     0.00000000     0.00000000
 H      1   0   0     2.094307708454     0.00000000     0.00000000
 H      1   2   0     2.094266411000   103.58377286     0.00000000
 O      1   2   3     5.647013889271   145.11449318   182.24514952
 H      4   1   2     1.843090399592     8.34200254   353.49422738
 H      4   1   2     1.810823113545   113.67307185     3.00905856


Diagonalization of the overlap matrix:
Smallest eigenvalue                        ... 3.794e-03
Time for diagonalization                   ...    0.002 sec
Threshold for overlap eigenvalues          ... 1.000e-08
Number of eigenvalues below threshold      ... 0
Time for construction of square roots      ...    0.001 sec
Total time needed                          ...    0.003 sec

-------------------
DFT GRID GENERATION
-------------------

General Integration Accuracy     IntAcc      ...  4.340
Radial Grid Type                 RadialGrid  ... Gauss-Chebyshev
Angular Grid (max. acc.)         AngularGrid ... Lebedev-110
Angular grid pruning method      GridPruning ... 3 (G Style)
Weight generation scheme         WeightScheme... Becke
Basis function cutoff            BFCut       ...    1.0000e-11
Integration weight cutoff        WCut        ...    1.0000e-14
Grids for H and He will be reduced by one unit

# of grid points (after initial pruning)     ...   6548 (   0.0 sec)
# of grid points (after weights+screening)   ...   6435 (   0.0 sec)
nearest neighbour list constructed           ...    0.0 sec
Grid point re-assignment to atoms done       ...    0.0 sec
Grid point division into batches done        ...    0.0 sec
Reduced shell lists constructed in    0.0 sec

Total number of grid points                  ...     6435
Total number of batches                      ...      104
Average number of points per batch           ...       61
Average number of grid points per atom       ...     1072
Average number of shells per batch           ...    28.97 (76.24%)
Average number of basis functions per batch  ...    65.81 (76.52%)
Average number of large shells per batch     ...    24.42 (84.29%)
Average number of large basis fcns per batch ...    54.55 (82.89%)
Maximum spatial batch extension              ...  24.21, 21.59, 22.14 au
[...]

Time for grid setup =    0.028 sec

--------------
SCF ITERATIONS
--------------
ITER       Energy         Delta-E        Max-DP      RMS-DP      [F,P]     Damp
               ***  Starting incremental Fock matrix formation  ***
                      *** Initiating the SOSCF procedure ***
                      *** Re-Reading the Fockian *** 
                      *** Removing any level shift *** 
ITER      Energy       Delta-E        Grad      Rot      Max-DP    RMS-DP
  0   -115.47514528 -115.4751452848  0.000363  0.000363  0.000354  0.000015
               *** Restarting incremental Fock matrix formation ***
  1   -115.47514682  -0.0000015343  0.000089  0.000252  0.000200  0.000009
  2   -115.47514700  -0.0000001768  0.000021  0.000093  0.000041  0.000002
  3   -115.47514700  -0.0000000060  0.000022  0.000017  0.000020  0.000001
  4   -115.47514700  -0.0000000023  0.000008  0.000015  0.000008  0.000000
                 **** Energy Check signals convergence ****
              ***Rediagonalizing the Fockian in SOSCF/NRSCF***

               *****************************************************
               *                     SUCCESS                       *
               *           SCF CONVERGED AFTER   5 CYCLES          *
               *****************************************************

Setting up the final grid:

General Integration Accuracy     IntAcc      ...  4.670
Radial Grid Type                 RadialGrid  ... Gauss-Chebyshev
Angular Grid (max. acc.)         AngularGrid ... Lebedev-302
Angular grid pruning method      GridPruning ... 3 (G Style)
Weight generation scheme         WeightScheme... Becke
Basis function cutoff            BFCut       ...    1.0000e-11
Integration weight cutoff        WCut        ...    1.0000e-14
Grids for H and He will be reduced by one unit

# of grid points (after initial pruning)     ...  26000 (   0.0 sec)
# of grid points (after weights+screening)   ...  25460 (   0.0 sec)
nearest neighbour list constructed           ...    0.0 sec
Grid point re-assignment to atoms done       ...    0.0 sec
Grid point division into batches done        ...    0.1 sec
Reduced shell lists constructed in    0.1 sec

Total number of grid points                  ...    25460
Total number of batches                      ...      400
Average number of points per batch           ...       63
Average number of grid points per atom       ...     4243
Average number of shells per batch           ...    26.36 (69.37%)
Average number of basis functions per batch  ...    59.12 (68.75%)
Average number of large shells per batch     ...    22.02 (83.54%)
Average number of large basis fcns per batch ...    48.99 (82.86%)
Maximum spatial batch extension              ...  20.64, 20.64, 21.01 au
Average spatial batch extension              ...   3.22,  3.07,  3.34 au

Final grid set up in    0.2 sec
Final integration                            ... done (   0.2 sec)
Change in XC energy                          ...     0.000180895
Integrated number of electrons               ...    17.999994446
Previous integrated no of electrons          ...    17.999998760

----------------
TOTAL SCF ENERGY
----------------

Total Energy       :         -115.47496611 Eh           -3142.23358 eV

Components:
Nuclear Repulsion  :           28.94836926 Eh             787.72517 eV
Electronic Energy  :         -144.42333537 Eh           -3929.95875 eV
One Electron Energy:         -214.38637754 Eh           -5833.74992 eV
Two Electron Energy:           69.96304217 Eh            1903.79116 eV

Virial components:
Potential Energy   :         -230.49607518 Eh           -6272.11707 eV
Kinetic Energy     :          115.02110907 Eh            3129.88350 eV
Virial Ratio       :            2.00394586


DFT components:
N(Alpha)           :        8.999997223206 electrons
N(Beta)            :        8.999997223206 electrons
N(Total)           :       17.999994446412 electrons
E(X)               :      -11.012665259568 Eh       
E(C)               :       -0.555778656777 Eh       
E(XC)              :      -11.568443916345 Eh       
DFET-embed. en.    :        0.000000000000 Eh       

---------------
SCF CONVERGENCE
---------------

  Last Energy change         ...   -7.0351e-10  Tolerance :   1.0000e-08
  Last MAX-Density change    ...    9.4776e-07  Tolerance :   1.0000e-07
  Last RMS-Density change    ...    5.8933e-08  Tolerance :   5.0000e-09
  Last Orbital Gradient      ...    1.8145e-06  Tolerance :   1.0000e-05
  Last Orbital Rotation      ...    2.7164e-06  Tolerance :   1.0000e-05

             **** THE GBW FILE WAS UPDATED (input.gbw) ****
             **** DENSITY FILE WAS UPDATED (input.scfp) ****
             **** ENERGY FILE WAS UPDATED (input.en.tmp) ****
             **** THE GBW FILE WAS UPDATED (input.gbw) ****
             **** DENSITY FILE WAS UPDATED (input.scfp) ****
----------------
ORBITAL ENERGIES
----------------

  NO   OCC          E(Eh)            E(eV) 
   0   2.0000     -19.159607      -521.3594 
   1   2.0000     -10.321998      -280.8758 
   2   2.0000      -0.995517       -27.0894 
   3   2.0000      -0.714759       -19.4496 
   4   2.0000      -0.507505       -13.8099 
   5   2.0000      -0.448998       -12.2179 
   6   2.0000      -0.369739       -10.0611 
   7   2.0000      -0.292694        -7.9646 
   8   2.0000      -0.289379        -7.8744 
   9   0.0000      -0.152352        -4.1457 
  10   0.0000       0.050545         1.3754 
  11   0.0000       0.082500         2.2449 
  12   0.0000       0.106359         2.8942 
  13   0.0000       0.194773         5.3000 
  14   0.0000       0.207916         5.6577 
  15   0.0000       0.234290         6.3754 
  16   0.0000       0.247100         6.7239 
  17   0.0000       0.288541         7.8516 
  18   0.0000       0.396748        10.7961 
  19   0.0000       0.431751        11.7486 
  20   0.0000       0.447256        12.1705 
  21   0.0000       0.464752        12.6465 
  22   0.0000       0.473509        12.8848 
  23   0.0000       0.499532        13.5930 
  24   0.0000       0.609104        16.5746 
  25   0.0000       0.615259        16.7421 
  26   0.0000       0.638303        17.3691 
  27   0.0000       0.781872        21.2758 
  28   0.0000       0.849267        23.1097 
  29   0.0000       0.932109        25.3640 
  30   0.0000       0.942803        25.6550 
  31   0.0000       1.218072        33.1454 
  32   0.0000       1.242447        33.8087 
  33   0.0000       1.323812        36.0228 
  34   0.0000       1.344558        36.5873 
  35   0.0000       1.385652        37.7055 
  36   0.0000       1.418214        38.5916 
  37   0.0000       1.466611        39.9085 
  38   0.0000       1.626769        44.2666 
  39   0.0000       1.653222        44.9865 
  40   0.0000       1.716977        46.7213 
  41   0.0000       1.808801        49.2200 
  42   0.0000       1.816040        49.4170 
  43   0.0000       1.883086        51.2414 
  44   0.0000       1.993578        54.2480 
  45   0.0000       2.072708        56.4012 
  46   0.0000       2.102956        57.2243 
  47   0.0000       2.130224        57.9663 
  48   0.0000       2.157272        58.7024 
  49   0.0000       2.191620        59.6370 
  50   0.0000       2.359811        64.2137 
  51   0.0000       2.420245        65.8582 
  52   0.0000       2.499852        68.0244 
  53   0.0000       2.566845        69.8474 
  54   0.0000       2.617713        71.2316 
  55   0.0000       2.687856        73.1403 
  56   0.0000       2.702537        73.5398 
  57   0.0000       2.714476        73.8646 
  58   0.0000       2.877946        78.3129 
  59   0.0000       2.917949        79.4014 
  60   0.0000       2.964898        80.6790 
  61   0.0000       2.973018        80.8999 
  62   0.0000       3.040570        82.7381 
  63   0.0000       3.085377        83.9574 
  64   0.0000       3.175933        86.4215 
  65   0.0000       3.219228        87.5996 
  66   0.0000       3.337154        90.8086 
  67   0.0000       3.438032        93.5536 
  68   0.0000       3.728069       101.4459 
  69   0.0000       3.991479       108.6137 
  70   0.0000       4.127095       112.3040 
  71   0.0000       4.146678       112.8369 
  72   0.0000       5.153658       140.2382 
  73   0.0000       5.252569       142.9297 
  74   0.0000       5.432395       147.8230 
  75   0.0000       5.459024       148.5476 
  76   0.0000       5.530107       150.4819 
  77   0.0000       6.107348       166.1894 
  78   0.0000       6.308441       171.6614 
  79   0.0000       6.369848       173.3324 
  80   0.0000       6.433922       175.0759 
  81   0.0000       6.488504       176.5612 
  82   0.0000       6.985671       190.0898 
  83   0.0000       7.070985       192.4113 
  84   0.0000      21.670767       589.6916 
  85   0.0000      43.549228      1185.0347 

--------------------
FRAGMENT INFORMATION
--------------------
Fragment  1:    0   1   2 
Fragment  2:    3   4   5 


                    ********************************
                    * MULLIKEN POPULATION ANALYSIS *
                    ********************************

-------------------------
MULLIKEN FRAGMENT CHARGES
-------------------------
 Fragment   0 :  -0.000881
 Fragment   1 :   0.000881
Sum of fragment charges:    0.0000000

---------------------------------
MULLIKEN FRAGMENT OVERLAP CHARGES
---------------------------------
                   0          1    
      0       9.283749  -0.104539
      1      -0.104539  11.240343

-----------------------
MULLIKEN ATOMIC CHARGES
-----------------------
   0 C :   -0.308785
   1 H :    0.153307
   2 H :    0.154597
   3 O :   -0.667504
   4 H :    0.366654
   5 H :    0.301731
Sum of atomic charges:    0.0000000

--------------------------------
MULLIKEN REDUCED ORBITAL CHARGES
--------------------------------
  0 C s       :     3.702757  s :     3.702757
      pz      :     0.687730  p :     2.573865
      px      :     0.750060
      py      :     1.136074
      dz2     :     0.002161  d :     0.031413
      dxz     :     0.011272
      dyz     :     0.005010
      dx2y2   :     0.012665
      dxy     :     0.000305
      f0      :     0.000107  f :     0.000751
      f+1     :     0.000060
      f-1     :     0.000098
      f+2     :     0.000014
      f-2     :     0.000079
      f+3     :     0.000203
      f-3     :     0.000189
  1 H s       :     0.824958  s :     0.824958
      pz      :     0.006347  p :     0.021735
      px      :     0.008941
      py      :     0.006447
  2 H s       :     0.823750  s :     0.823750
      pz      :     0.003912  p :     0.021653
      px      :     0.004537
      py      :     0.013203
  3 O s       :     3.799864  s :     3.799864
      pz      :     1.707218  p :     4.845801
      px      :     1.722136
      py      :     1.416447
      dz2     :     0.003219  d :     0.020580
      dxz     :     0.006263
      dyz     :     0.001003
      dx2y2   :     0.003512
      dxy     :     0.006583
      f0      :     0.000132  f :     0.001259
      f+1     :     0.000186
      f-1     :     0.000247
      f+2     :     0.000128
      f-2     :     0.000256
      f+3     :     0.000269
      f-3     :     0.000041
  4 H s       :     0.578201  s :     0.578201
      pz      :     0.021923  p :     0.055144
      px      :     0.018499
      py      :     0.014722
  5 H s       :     0.649570  s :     0.649570
      pz      :     0.015166  p :     0.048700
      px      :     0.015091
      py      :     0.018443


                     *******************************
                     * LOEWDIN POPULATION ANALYSIS *
                     *******************************

------------------------
LOEWDIN FRAGMENT CHARGES
------------------------
 Fragment   0 :   0.071945
 Fragment   1 :  -0.071945

----------------------------
LOEWDIN FRAGMENT BOND ORDERS
----------------------------
                   0          1    
      0      12.149449   0.270420
      1       0.270420  14.486712

----------------------
LOEWDIN ATOMIC CHARGES
----------------------
   0 C :   -0.111922
   1 H :    0.090691
   2 H :    0.093175
   3 O :   -0.332477
   4 H :    0.118152
   5 H :    0.142381

-------------------------------
LOEWDIN REDUCED ORBITAL CHARGES
-------------------------------
  0 C s       :     3.366030  s :     3.366030
      pz      :     0.693327  p :     2.663605
      px      :     0.786446
      py      :     1.183832
      dz2     :     0.005658  d :     0.075455
      dxz     :     0.026539
      dyz     :     0.009610
      dx2y2   :     0.030126
      dxy     :     0.003523
      f0      :     0.000495  f :     0.006832
      f+1     :     0.000410
      f-1     :     0.000787
      f+2     :     0.002327
      f-2     :     0.000608
      f+3     :     0.001070
      f-3     :     0.001135
  1 H s       :     0.841057  s :     0.841057
      pz      :     0.020670  p :     0.068252
      px      :     0.029140
      py      :     0.018442
  2 H s       :     0.838245  s :     0.838245
      pz      :     0.012045  p :     0.068580
      px      :     0.013246
      py      :     0.043289
  3 O s       :     3.460997  s :     3.460997
      pz      :     1.683130  p :     4.838594
      px      :     1.716086
      py      :     1.439378
      dz2     :     0.004568  d :     0.030610
      dxz     :     0.008217
      dyz     :     0.002415
      dx2y2   :     0.005160
      dxy     :     0.010250
      f0      :     0.000171  f :     0.002276
      f+1     :     0.000378
      f-1     :     0.000355
      f+2     :     0.000117
      f-2     :     0.000475
      f+3     :     0.000658
      f-3     :     0.000121
  4 H s       :     0.697746  s :     0.697746
      pz      :     0.075830  p :     0.184102
      px      :     0.064881
      py      :     0.043391
  5 H s       :     0.692440  s :     0.692440
      pz      :     0.041680  p :     0.165179
      px      :     0.049935
      py      :     0.073564


                      *****************************
                      * MAYER POPULATION ANALYSIS *
                      *****************************

  NA   - Mulliken gross atomic population
  ZA   - Total nuclear charge
  QA   - Mulliken gross atomic charge
  VA   - Mayer's total valence
  BVA  - Mayer's bonded valence
  FA   - Mayer's free valence

  ATOM       NA         ZA         QA         VA         BVA        FA
  0 C      6.3088     6.0000    -0.3088     1.9357     1.9357     0.0000
  1 H      0.8467     1.0000     0.1533     0.9447     0.9447     0.0000
  2 H      0.8454     1.0000     0.1546     0.9455     0.9455     0.0000
  3 O      8.6675     8.0000    -0.6675     1.7905     1.7905     0.0000
  4 H      0.6333     1.0000     0.3667     0.8701     0.8701     0.0000
  5 H      0.6983     1.0000     0.3017     0.9303     0.9303     0.0000

  Mayer bond orders larger than 0.100000
B(  0-C ,  1-H ) :   0.9485 B(  0-C ,  2-H ) :   0.9463 B(  3-O ,  4-H ) :   0.8563 
B(  3-O ,  5-H ) :   0.9162 

-------
TIMINGS
-------

Total SCF time: 0 days 0 hours 0 min 2 sec 

Total time                  ....       2.429 sec
Sum of individual times     ....       2.252 sec  ( 92.7%)

Fock matrix formation       ....       2.057 sec  ( 84.7%)
  XC integration            ....       0.403 sec  ( 19.6% of F)
    Basis function eval.    ....       0.156 sec  ( 38.8% of XC)
    Density eval.           ....       0.063 sec  ( 15.7% of XC)
    XC-Functional eval.     ....       0.063 sec  ( 15.5% of XC)
    XC-Potential eval.      ....       0.098 sec  ( 24.4% of XC)
Diagonalization             ....       0.001 sec  (  0.0%)
Density matrix formation    ....       0.000 sec  (  0.0%)
Population analysis         ....       0.001 sec  (  0.1%)
Initial guess               ....       0.002 sec  (  0.1%)
Orbital Transformation      ....       0.000 sec  (  0.0%)
Orbital Orthonormalization  ....       0.001 sec  (  0.0%)
DIIS solution               ....       0.000 sec  (  0.0%)
SOSCF solution              ....       0.003 sec  (  0.1%)
Grid generation             ....       0.188 sec  (  7.7%)


-------------------------------------------------------------------------------
                          DFT DISPERSION CORRECTION                            
                                                                               
                              DFTD3 V3.1  Rev 1                                
                          USING Becke-Johnson damping                          
-------------------------------------------------------------------------------
The PBE0 functional is recognized
Active option DFTDOPT                   ...         4   

molecular C6(AA) [au] = 243.019244 


            DFT-D V3
 parameters
 s6 scaling factor         :     1.0000 
 a1 scaling factor         :     0.4145 
 s8 scaling factor         :     1.2177 
 a2 scaling factor         :     4.8593 
 ad hoc parameters k1-k3   :    16.0000     1.3333    -4.0000 

 Edisp/kcal,au: -0.832363979590  -0.001326456293 
 E6   /kcal   :  -0.558470634 
 E8   /kcal   :  -0.273893345 
 % E8         :  32.905477880 

-------------------------   ----------------
Dispersion correction           -0.001326456
-------------------------   ----------------


-------------------------   --------------------
FINAL SINGLE POINT ENERGY      -115.476292566139
-------------------------   --------------------

                                *** OPTIMIZATION RUN DONE ***

                            ***************************************
                            *     ORCA property calculations      *
                            ***************************************

                                    ---------------------
                                    Active property flags
                                    ---------------------
   (+) Dipole Moment


------------------------------------------------------------------------------
                       ORCA ELECTRIC PROPERTIES CALCULATION
------------------------------------------------------------------------------

Dipole Moment Calculation                       ... on
Quadrupole Moment Calculation                   ... off
Polarizability Calculation                      ... off
GBWName                                         ... input.gbw
Electron density file                           ... input.scfp
The origin for moment calculation is the CENTER OF MASS  = (-1.375717, -1.307436  2.525322)

-------------
DIPOLE MOMENT
-------------
                                X             Y             Z
Electronic contribution:     -0.54052      -0.35530       0.58936
Nuclear contribution   :      1.66396       0.66023      -1.59183
                        -----------------------------------------
Total Dipole Moment    :      1.12343       0.30493      -1.00247
                        -----------------------------------------
Magnitude (a.u.)       :      1.53624
Magnitude (Debye)      :      3.90481



--------------------
Rotational spectrum 
--------------------
 
Rotational constants in cm-1:     7.426532     0.221986     0.215572 
Rotational constants in MHz : 222641.836948  6654.980474  6462.699613 

 Dipole components along the rotational axes: 
x,y,z [a.u.] :    -1.436568     0.542455     0.045246 
x,y,z [Debye]:    -3.651466     1.378811     0.115007 

 

Timings for individual modules:

Sum of individual times         ...       74.702 sec (=   1.245 min)
GTO integral calculation        ...        3.759 sec (=   0.063 min)   5.0 %
SCF iterations                  ...       47.569 sec (=   0.793 min)  63.7 %
SCF Gradient evaluation         ...       22.912 sec (=   0.382 min)  30.7 %
Geometry relaxation             ...        0.463 sec (=   0.008 min)   0.6 %
                             ****ORCA TERMINATED NORMALLY****
TOTAL RUN TIME: 0 days 0 hours 1 minutes 15 seconds 726 msec
/var/spool/slurmd/job6368206/slurm_script: line 26: ​: command not found
