/var/spool/slurmd/job6367390/slurm_script: line 8: ​: command not found
/var/spool/slurmd/job6367390/slurm_script: line 13: ​: command not found
/var/spool/slurmd/job6367390/slurm_script: line 16: ​: command not found
/var/spool/slurmd/job6367390/slurm_script: line 22: ​: command not found

                                 *****************
                                 * O   R   C   A *
                                 *****************

           --- An Ab Initio, DFT and Semiempirical electronic structure package ---

                  #######################################################
                  #                        -***-                        #
                  #          Department of theory and spectroscopy      #
                  #               Directorship: Frank Neese             #
                  #        Max Planck Institute fuer Kohlenforschung    #
                  #                Kaiser Wilhelm Platz 1               #
                  #                 D-45470 Muelheim/Ruhr               #
                  #                      Germany                        #
                  #                                                     #
                  #                  All rights reserved                #
                  #                        -***-                        #
                  #######################################################


                         Program Version 4.2.0 -  RELEASE  -


 With contributions from (in alphabetic order):
   Daniel Aravena         : Magnetic Suceptibility
   Michael Atanasov       : Ab Initio Ligand Field Theory (pilot matlab implementation)
   Alexander A. Auer      : GIAO ZORA, VPT2
   Ute Becker             : Parallelization
   Giovanni Bistoni       : ED, misc. LED, open-shell LED, HFLED
   Martin Brehm           : Molecular dynamics
   Dmytro Bykov           : SCF Hessian
   Vijay G. Chilkuri      : MRCI spin determinant printing, contributions to CSF-ICE
   Dipayan Datta          : RHF DLPNO-CCSD density
   Achintya Kumar Dutta   : EOM-CC, STEOM-CC
   Dmitry Ganyushin       : Spin-Orbit,Spin-Spin,Magnetic field MRCI
   Miquel Garcia          : C-PCM Hessian, Gaussian charge scheme
   Yang Guo               : DLPNO-NEVPT2, CIM, IAO-localization
   Andreas Hansen         : Spin unrestricted coupled pair/coupled cluster methods
   Benjamin Helmich-Paris : CASSCF linear response (MC-RPA)
   Lee Huntington         : MR-EOM, pCC
   Robert Izsak           : Overlap fitted RIJCOSX, COSX-SCS-MP3, EOM
   Christian Kollmar      : KDIIS, OOCD, Brueckner-CCSD(T), CCSD density
   Simone Kossmann        : Meta GGA functionals, TD-DFT gradient, OOMP2, MP2 Hessian
   Martin Krupicka        : AUTO-CI
   Lucas Lang             : DCDCAS
   Dagmar Lenk            : GEPOL surface, SMD
   Dimitrios Liakos       : Extrapolation schemes; Compound Job, initial MDCI parallelization
   Dimitrios Manganas     : Further ROCIS development; embedding schemes
   Dimitrios Pantazis     : SARC Basis sets
   Taras Petrenko         : DFT Hessian,TD-DFT gradient, ASA, ECA, R-Raman, ABS, FL, XAS/XES, NRVS
   Peter Pinski           : DLPNO-MP2, DLPNO-MP2 Gradient
   Christoph Reimann      : Effective Core Potentials
   Marius Retegan         : Local ZFS, SOC
   Christoph Riplinger    : Optimizer, TS searches, QM/MM, DLPNO-CCSD(T), (RO)-DLPNO pert. Triples
   Tobias Risthaus        : Range-separated hybrids, TD-DFT gradient, RPA, STAB
   Michael Roemelt        : Original ROCIS implementation
   Masaaki Saitow         : Open-shell DLPNO-CCSD energy and density
   Barbara Sandhoefer     : DKH picture change effects
   Avijit Sen             : IP-ROCIS
   Kantharuban Sivalingam : CASSCF convergence, NEVPT2, FIC-MRCI
   Bernardo de Souza      : ESD, SOC TD-DFT
   Georgi Stoychev        : AutoAux, RI-MP2 NMR
   Willem Van den Heuvel  : Paramagnetic NMR
   Boris Wezisla          : Elementary symmetry handling
   Frank Wennmohs         : Technical directorship


 We gratefully acknowledge several colleagues who have allowed us to
 interface, adapt or use parts of their codes:
   Stefan Grimme, W. Hujo, H. Kruse,             : VdW corrections, initial TS optimization,
                  C. Bannwarth                     DFT functionals, gCP, sTDA/sTD-DF
   Ed Valeev, F. Pavosevic, A. Kumar             : LibInt (2-el integral package), F12 methods
   Garnet Chan, S. Sharma, J. Yang, R. Olivares  : DMRG
   Ulf Ekstrom                                   : XCFun DFT Library
   Mihaly Kallay                                 : mrcc  (arbitrary order and MRCC methods)
   Andreas Klamt, Michael Diedenhofen            : otool_cosmo (COSMO solvation model)
   Jiri Pittner, Ondrej Demel                    : Mk-CCSD
   Frank Weinhold                                : gennbo (NPA and NBO analysis)
   Christopher J. Cramer and Donald G. Truhlar   : smd solvation model
   Lars Goerigk                                  : TD-DFT with DH, B97 family of functionals
   V. Asgeirsson, H. Jonsson                     : NEB implementation
   FAccTs GmbH                                   : IRC, NEB, NEB-TS, Multilevel, MM, QM/MM, CI optimization
   S Lehtola, MJT Oliveira, MAL Marques          : LibXC Library


 Your calculation uses the libint2 library for the computation of 2-el integrals
 For citations please refer to: http://libint.valeyev.net

 Your ORCA version has been built with support for libXC version: 4.2.3
 For citations please refer to: https://tddft.org/programs/libxc/

 This ORCA versions uses:
   CBLAS   interface :  Fast vector & matrix operations
   LAPACKE interface :  Fast linear algebra routines
   SCALAPACK package :  Parallel linear algebra routines


Your calculation utilizes the atom-pairwise dispersion correction
with the Becke-Johnson damping scheme (D3BJ)
Cite in your paper:
S.Grimme, S.Ehrlich, L.Goerigk, J Comput Chem, (2011), 32, 1456–1465 
S.Grimme, J.Antony, S.Ehrlich and H.Krieg, J.Chem.Phys., 132, (2010), 154104 
   

----- Orbital basis set information -----
Your calculation utilizes the basis: def2-TZVP
   F. Weigend and R. Ahlrichs, Phys. Chem. Chem. Phys. 7, 3297 (2005).

================================================================================
                                        WARNINGS
                       Please study these warnings very carefully!
================================================================================


INFO   : the flag for use of LIBINT has been found!

================================================================================
                                       INPUT FILE
================================================================================
NAME = input.inp
|  1> ! PBE0 D3 def2-TZVP
|  2> 
|  3> *xyz 0 1
|  4> O -1.47509614629583 -1.29358571885374 2.29818864036820
|  5> H -0.87783948760158 -0.98540169212890 1.58987042714267
|  6> H -1.22399221548771 -2.20523304094991 2.47014489963764
|  7> **                         ****END OF INPUT****
================================================================================

                       ****************************
                       * Single Point Calculation *
                       ****************************

---------------------------------
CARTESIAN COORDINATES (ANGSTROEM)
---------------------------------
  O     -1.475096   -1.293586    2.298189
  H     -0.877839   -0.985402    1.589870
  H     -1.223992   -2.205233    2.470145

----------------------------
CARTESIAN COORDINATES (A.U.)
----------------------------
  NO LB      ZA    FRAG     MASS         X           Y           Z
   0 O     8.0000    0    15.999   -2.787528   -2.444523    4.342947
   1 H     1.0000    0     1.008   -1.658876   -1.862139    3.004420
   2 H     1.0000    0     1.008   -2.313010   -4.167287    4.667897

--------------------------------
INTERNAL COORDINATES (ANGSTROEM)
--------------------------------
 O      0   0   0     0.000000000000     0.00000000     0.00000000
 H      1   0   0     0.976425932608     0.00000000     0.00000000
 H      1   2   0     0.961105082212   105.62625419     0.00000000

---------------------------
INTERNAL COORDINATES (A.U.)
---------------------------
 O      0   0   0     0.000000000000     0.00000000     0.00000000
 H      1   0   0     1.845177602688     0.00000000     0.00000000
 H      1   2   0     1.816225391301   105.62625419     0.00000000

---------------------
BASIS SET INFORMATION
---------------------
There are 2 groups of distinct atoms

 Group   1 Type O   : 11s6p2d1f contracted to 5s3p2d1f pattern {62111/411/11/1}
 Group   2 Type H   : 5s1p contracted to 3s1p pattern {311/1}

Atom   0O    basis set group =>   1
Atom   1H    basis set group =>   2
Atom   2H    basis set group =>   2
------------------------------------------------------------------------------
                           ORCA GTO INTEGRAL CALCULATION
------------------------------------------------------------------------------

                         BASIS SET STATISTICS AND STARTUP INFO

 # of primitive gaussian shells          ...   32
 # of primitive gaussian functions       ...   62
 # of contracted shells                  ...   19
 # of contracted basis functions         ...   43
 Highest angular momentum                ...    3
 Maximum contraction depth               ...    6
 Integral package used                   ... LIBINT
 Integral threshhold            Thresh   ...  1.000e-10
 Primitive cut-off              TCut     ...  1.000e-11


------------------------------ INTEGRAL EVALUATION ----------------------------


 * One electron integrals 
 Pre-screening matrix                    ... done
 Shell pair data                         ... done (   0.000 sec)

-------------------------------------------------------------------------------
                                 ORCA SCF
-------------------------------------------------------------------------------

------------
SCF SETTINGS
------------
Hamiltonian:
 Density Functional     Method          .... DFT(GTOs)
 Exchange Functional    Exchange        .... PBE
   PBE kappa parameter   XKappa         ....  0.804000
   PBE mue parameter    XMuePBE         ....  0.219520
 Correlation Functional Correlation     .... PBE
   PBE beta parameter  CBetaPBE         ....  0.066725
 LDA part of GGA corr.  LDAOpt          .... PW91-LDA
 Gradients option       PostSCFGGA      .... off
 Hybrid DFT is turned on
   Fraction HF Exchange ScalHFX         ....  0.250000
   Scaling of DF-GGA-X  ScalDFX         ....  0.750000
   Scaling of DF-GGA-C  ScalDFC         ....  1.000000
   Scaling of DF-LDA-C  ScalLDAC        ....  1.000000
   Perturbative correction              ....  0.000000
   Density functional embedding theory  .... OFF
   NL short-range parameter             ....  6.900000


General Settings:
 Integral files         IntName         .... input
 Hartree-Fock type      HFTyp           .... RHF
 Total Charge           Charge          ....    0
 Multiplicity           Mult            ....    1
 Number of Electrons    NEL             ....   10
 Basis Dimension        Dim             ....   43
 Nuclear Repulsion      ENuc            ....      9.0831863707 Eh

Convergence Acceleration:
 DIIS                   CNVDIIS         .... on
   Start iteration      DIISMaxIt       ....    12
   Startup error        DIISStart       ....  0.200000
   # of expansion vecs  DIISMaxEq       ....     5
   Bias factor          DIISBfac        ....   1.050
   Max. coefficient     DIISMaxC        ....  10.000
 Newton-Raphson         CNVNR           .... off
 SOSCF                  CNVSOSCF        .... on
   Start iteration      SOSCFMaxIt      ....   150
   Startup grad/error   SOSCFStart      ....  0.003300
 Level Shifting         CNVShift        .... on
   Level shift para.    LevelShift      ....    0.2500
   Turn off err/grad.   ShiftErr        ....    0.0010
 Zerner damping         CNVZerner       .... off
 Static damping         CNVDamp         .... on
   Fraction old density DampFac         ....    0.7000
   Max. Damping (<1)    DampMax         ....    0.9800
   Min. Damping (>=0)   DampMin         ....    0.0000
   Turn off err/grad.   DampErr         ....    0.1000
 Fernandez-Rico         CNVRico         .... off

SCF Procedure:
 Maximum # iterations   MaxIter         ....   125
 SCF integral mode      SCFMode         .... Direct
   Integral package                     .... LIBINT
 Reset frequency        DirectResetFreq ....    20
 Integral Threshold     Thresh          ....  1.000e-10 Eh
 Primitive CutOff       TCut            ....  1.000e-11 Eh

Convergence Tolerance:
 Convergence Check Mode ConvCheckMode   .... Total+1el-Energy
 Convergence forced     ConvForced      .... 0
 Energy Change          TolE            ....  1.000e-06 Eh
 1-El. energy change                    ....  1.000e-03 Eh
 Orbital Gradient       TolG            ....  5.000e-05
 Orbital Rotation angle TolX            ....  5.000e-05
 DIIS Error             TolErr          ....  1.000e-06


Diagonalization of the overlap matrix:
Smallest eigenvalue                        ... 8.714e-03
Time for diagonalization                   ...    0.001 sec
Threshold for overlap eigenvalues          ... 1.000e-08
Number of eigenvalues below threshold      ... 0
Time for construction of square roots      ...    0.000 sec
Total time needed                          ...    0.001 sec

-------------------
DFT GRID GENERATION
-------------------

General Integration Accuracy     IntAcc      ...  4.340
Radial Grid Type                 RadialGrid  ... Gauss-Chebyshev
Angular Grid (max. acc.)         AngularGrid ... Lebedev-110
Angular grid pruning method      GridPruning ... 3 (G Style)
Weight generation scheme         WeightScheme... Becke
Basis function cutoff            BFCut       ...    1.0000e-10
Integration weight cutoff        WCut        ...    1.0000e-14
Grids for H and He will be reduced by one unit

# of grid points (after initial pruning)     ...   3304 (   0.0 sec)
# of grid points (after weights+screening)   ...   3289 (   0.0 sec)
nearest neighbour list constructed           ...    0.0 sec
Grid point re-assignment to atoms done       ...    0.0 sec
Grid point division into batches done        ...    0.0 sec
Reduced shell lists constructed in    0.0 sec

Total number of grid points                  ...     3289
Total number of batches                      ...       53
Average number of points per batch           ...       62
Average number of grid points per atom       ...     1096
Average number of shells per batch           ...    16.93 (89.08%)
Average number of basis functions per batch  ...    38.81 (90.27%)
Average number of large shells per batch     ...    16.06 (94.86%)
Average number of large basis fcns per batch ...    36.94 (95.18%)
Maximum spatial batch extension              ...  23.15, 20.95, 21.59 au
Average spatial batch extension              ...   6.06,  5.00,  5.42 au

Time for grid setup =    0.010 sec

------------------------------
INITIAL GUESS: MODEL POTENTIAL
------------------------------
Loading Hartree-Fock densities                     ... done
Calculating cut-offs                               ... done
Setting up the integral package                    ... done
Initializing the effective Hamiltonian             ... done
Starting the Coulomb interaction                   ... done (   0.0 sec)
Reading the grid                                   ... done
Mapping shells                                     ... done
Starting the XC term evaluation                    ... done (   0.0 sec)
  promolecular density results
     # of electrons  =      9.998791325
     EX              =     -8.726195244
     EC              =     -0.315820609
     EX+EC           =     -9.042015854
Transforming the Hamiltonian                       ... done (   0.0 sec)
Diagonalizing the Hamiltonian                      ... done (   0.0 sec)
Back transforming the eigenvectors                 ... done (   0.0 sec)
Now organizing SCF variables                       ... done
                      ------------------
                      INITIAL GUESS DONE (   0.1 sec)
                      ------------------
--------------
SCF ITERATIONS
--------------
ITER       Energy         Delta-E        Max-DP      RMS-DP      [F,P]     Damp
               ***  Starting incremental Fock matrix formation  ***
  0    -76.2838105619   0.000000000000 0.04906570  0.00358481  0.3227256 0.7000
  1    -76.3299935167  -0.046182954774 0.02641477  0.00215647  0.1331218 0.7000
                               ***Turning on DIIS***
  2    -76.3451761699  -0.015182653146 0.02845937  0.00253856  0.0303384 0.0000
  3    -76.3716207875  -0.026444617629 0.01635279  0.00138134  0.0793735 0.0000
  4    -76.3768953780  -0.005274590533 0.00394180  0.00031097  0.0110025 0.0000
                      *** Initiating the SOSCF procedure ***
                           *** Shutting down DIIS ***
                      *** Re-Reading the Fockian *** 
                      *** Removing any level shift *** 
ITER      Energy       Delta-E        Grad      Rot      Max-DP    RMS-DP
  5    -76.37702894  -0.0001335660  0.000534  0.000534  0.000881  0.000072
               *** Restarting incremental Fock matrix formation ***
  6    -76.37703227  -0.0000033211  0.000210  0.000487  0.000491  0.000036
  7    -76.37703252  -0.0000002551  0.000095  0.000111  0.000104  0.000011
                 **** Energy Check signals convergence ****
              ***Rediagonalizing the Fockian in SOSCF/NRSCF***

               *****************************************************
               *                     SUCCESS                       *
               *           SCF CONVERGED AFTER   8 CYCLES          *
               *****************************************************

Setting up the final grid:

General Integration Accuracy     IntAcc      ...  4.670
Radial Grid Type                 RadialGrid  ... Gauss-Chebyshev
Angular Grid (max. acc.)         AngularGrid ... Lebedev-302
Angular grid pruning method      GridPruning ... 3 (G Style)
Weight generation scheme         WeightScheme... Becke
Basis function cutoff            BFCut       ...    1.0000e-10
Integration weight cutoff        WCut        ...    1.0000e-14
Grids for H and He will be reduced by one unit

# of grid points (after initial pruning)     ...  13000 (   0.0 sec)
# of grid points (after weights+screening)   ...  12901 (   0.0 sec)
nearest neighbour list constructed           ...    0.0 sec
Grid point re-assignment to atoms done       ...    0.0 sec
Grid point division into batches done        ...    0.0 sec
Reduced shell lists constructed in    0.1 sec

Total number of grid points                  ...    12901
Total number of batches                      ...      203
Average number of points per batch           ...       63
Average number of grid points per atom       ...     4300
Average number of shells per batch           ...    15.45 (81.30%)
Average number of basis functions per batch  ...    35.29 (82.07%)
Average number of large shells per batch     ...    14.46 (93.59%)
Average number of large basis fcns per batch ...    33.05 (93.67%)
Maximum spatial batch extension              ...  17.28, 16.76, 16.88 au
Average spatial batch extension              ...   3.49,  3.20,  3.46 au

Final grid set up in    0.1 sec
Final integration                            ... done (   0.1 sec)
Change in XC energy                          ...    -0.000005391
Integrated number of electrons               ...    10.000002457
Previous integrated no of electrons          ...    10.000065588

----------------
TOTAL SCF ENERGY
----------------

Total Energy       :          -76.37703793 Eh           -2078.32486 eV

Components:
Nuclear Repulsion  :            9.08318637 Eh             247.16607 eV
Electronic Energy  :          -85.46022430 Eh           -2325.49093 eV
One Electron Energy:         -122.90130544 Eh           -3344.31454 eV
Two Electron Energy:           37.44108114 Eh            1018.82361 eV

Virial components:
Potential Energy   :         -152.45650747 Eh           -4148.55248 eV
Kinetic Energy     :           76.07946955 Eh            2070.22761 eV
Virial Ratio       :            2.00391128


DFT components:
N(Alpha)           :        5.000001228726 electrons
N(Beta)            :        5.000001228726 electrons
N(Total)           :       10.000002457451 electrons
E(X)               :       -6.691098801855 Eh       
E(C)               :       -0.326670275804 Eh       
E(XC)              :       -7.017769077659 Eh       
DFET-embed. en.    :        0.000000000000 Eh       

---------------
SCF CONVERGENCE
---------------

  Last Energy change         ...   -1.7448e-08  Tolerance :   1.0000e-06
  Last MAX-Density change    ...    7.2481e-05  Tolerance :   1.0000e-05
  Last RMS-Density change    ...    6.9245e-06  Tolerance :   1.0000e-06
  Last Orbital Gradient      ...    7.8908e-05  Tolerance :   5.0000e-05
  Last Orbital Rotation      ...    7.3437e-05  Tolerance :   5.0000e-05

             **** THE GBW FILE WAS UPDATED (input.gbw) ****
             **** DENSITY FILE WAS UPDATED (input.scfp) ****
             **** ENERGY FILE WAS UPDATED (input.en.tmp) ****
             **** THE GBW FILE WAS UPDATED (input.gbw) ****
             **** DENSITY FILE WAS UPDATED (input.scfp) ****
----------------
ORBITAL ENERGIES
----------------

  NO   OCC          E(Eh)            E(eV) 
   0   2.0000     -19.202986      -522.5398 
   1   2.0000      -1.034536       -28.1512 
   2   2.0000      -0.544271       -14.8104 
   3   2.0000      -0.400540       -10.8992 
   4   2.0000      -0.325999        -8.8709 
   5   0.0000       0.029944         0.8148 
   6   0.0000       0.104548         2.8449 
   7   0.0000       0.372322        10.1314 
   8   0.0000       0.419595        11.4177 
   9   0.0000       0.445008        12.1093 
  10   0.0000       0.452398        12.3104 
  11   0.0000       0.587243        15.9797 
  12   0.0000       0.611221        16.6322 
  13   0.0000       1.178731        32.0749 
  14   0.0000       1.193164        32.4676 
  15   0.0000       1.305996        35.5380 
  16   0.0000       1.543885        42.0112 
  17   0.0000       1.646035        44.7909 
  18   0.0000       1.752507        47.6881 
  19   0.0000       2.006136        54.5897 
  20   0.0000       2.059060        56.0299 
  21   0.0000       2.113965        57.5239 
  22   0.0000       2.300204        62.5917 
  23   0.0000       2.400829        65.3299 
  24   0.0000       2.582033        70.2607 
  25   0.0000       2.621180        71.3259 
  26   0.0000       2.638170        71.7882 
  27   0.0000       2.792775        75.9953 
  28   0.0000       3.640683        99.0680 
  29   0.0000       3.942325       107.2761 
  30   0.0000       5.116571       139.2290 
  31   0.0000       5.209924       141.7692 
  32   0.0000       5.387890       146.6119 
  33   0.0000       5.412517       147.2821 
  34   0.0000       5.482902       149.1973 
  35   0.0000       6.016507       163.7175 
  36   0.0000       6.227058       169.4469 
  37   0.0000       6.328320       172.2023 
  38   0.0000       6.394414       174.0009 
  39   0.0000       6.436899       175.1569 
  40   0.0000       6.918721       188.2680 
  41   0.0000       7.005537       190.6303 
  42   0.0000      43.353675      1179.7135 

                    ********************************
                    * MULLIKEN POPULATION ANALYSIS *
                    ********************************

-----------------------
MULLIKEN ATOMIC CHARGES
-----------------------
   0 O :   -0.650786
   1 H :    0.326217
   2 H :    0.324569
Sum of atomic charges:   -0.0000000

--------------------------------
MULLIKEN REDUCED ORBITAL CHARGES
--------------------------------
  0 O s       :     3.812068  s :     3.812068
      pz      :     1.659086  p :     4.815533
      px      :     1.734510
      py      :     1.421937
      dz2     :     0.003762  d :     0.021853
      dxz     :     0.007217
      dyz     :     0.000698
      dx2y2   :     0.005796
      dxy     :     0.004381
      f0      :     0.000107  f :     0.001332
      f+1     :     0.000282
      f-1     :     0.000227
      f+2     :     0.000196
      f-2     :     0.000195
      f+3     :     0.000161
      f-3     :     0.000164
  1 H s       :     0.627269  s :     0.627269
      pz      :     0.017692  p :     0.046514
      px      :     0.016602
      py      :     0.012219
  2 H s       :     0.627390  s :     0.627390
      pz      :     0.014401  p :     0.048041
      px      :     0.014665
      py      :     0.018975


                     *******************************
                     * LOEWDIN POPULATION ANALYSIS *
                     *******************************

----------------------
LOEWDIN ATOMIC CHARGES
----------------------
   0 O :   -0.318593
   1 H :    0.164540
   2 H :    0.154052

-------------------------------
LOEWDIN REDUCED ORBITAL CHARGES
-------------------------------
  0 O s       :     3.469088  s :     3.469088
      pz      :     1.646811  p :     4.815111
      px      :     1.725150
      py      :     1.443151
      dz2     :     0.005391  d :     0.032059
      dxz     :     0.010148
      dyz     :     0.001493
      dx2y2   :     0.009164
      dxy     :     0.005864
      f0      :     0.000130  f :     0.002334
      f+1     :     0.000528
      f-1     :     0.000354
      f+2     :     0.000250
      f-2     :     0.000334
      f+3     :     0.000387
      f-3     :     0.000351
  1 H s       :     0.680113  s :     0.680113
      pz      :     0.064351  p :     0.155346
      px      :     0.058845
      py      :     0.032151
  2 H s       :     0.683363  s :     0.683363
      pz      :     0.039006  p :     0.162585
      px      :     0.044275
      py      :     0.079303


                      *****************************
                      * MAYER POPULATION ANALYSIS *
                      *****************************

  NA   - Mulliken gross atomic population
  ZA   - Total nuclear charge
  QA   - Mulliken gross atomic charge
  VA   - Mayer's total valence
  BVA  - Mayer's bonded valence
  FA   - Mayer's free valence

  ATOM       NA         ZA         QA         VA         BVA        FA
  0 O      8.6508     8.0000    -0.6508     1.8099     1.8099    -0.0000
  1 H      0.6738     1.0000     0.3262     0.9099     0.9099    -0.0000
  2 H      0.6754     1.0000     0.3246     0.9117     0.9117    -0.0000

  Mayer bond orders larger than 0.100000
B(  0-O ,  1-H ) :   0.9040 B(  0-O ,  2-H ) :   0.9059 

-------
TIMINGS
-------

Total SCF time: 0 days 0 hours 0 min 1 sec 

Total time                  ....       1.266 sec
Sum of individual times     ....       1.123 sec  ( 88.7%)

Fock matrix formation       ....       0.956 sec  ( 75.5%)
  XC integration            ....       0.177 sec  ( 18.5% of F)
    Basis function eval.    ....       0.063 sec  ( 35.9% of XC)
    Density eval.           ....       0.025 sec  ( 14.2% of XC)
    XC-Functional eval.     ....       0.041 sec  ( 23.1% of XC)
    XC-Potential eval.      ....       0.034 sec  ( 19.2% of XC)
Diagonalization             ....       0.002 sec  (  0.2%)
Density matrix formation    ....       0.000 sec  (  0.0%)
Population analysis         ....       0.001 sec  (  0.1%)
Initial guess               ....       0.090 sec  (  7.1%)
Orbital Transformation      ....       0.000 sec  (  0.0%)
Orbital Orthonormalization  ....       0.000 sec  (  0.0%)
DIIS solution               ....       0.001 sec  (  0.1%)
SOSCF solution              ....       0.001 sec  (  0.1%)
Grid generation             ....       0.073 sec  (  5.7%)


-------------------------------------------------------------------------------
                          DFT DISPERSION CORRECTION                            
                                                                               
                              DFTD3 V3.1  Rev 1                                
                          USING Becke-Johnson damping                          
-------------------------------------------------------------------------------
The PBE0 functional is recognized
Active option DFTDOPT                   ...         4   

molecular C6(AA) [au] = 44.538965 


            DFT-D V3
 parameters
 s6 scaling factor         :     1.0000 
 a1 scaling factor         :     0.4145 
 s8 scaling factor         :     1.2177 
 a2 scaling factor         :     4.8593 
 ad hoc parameters k1-k3   :    16.0000     1.3333    -4.0000 

 Edisp/kcal,au: -0.173732410607  -0.000276860190 
 E6   /kcal   :  -0.121387981 
 E8   /kcal   :  -0.052344429 
 % E8         :  30.129340284 

-------------------------   ----------------
Dispersion correction           -0.000276860
-------------------------   ----------------


-------------------------   --------------------
FINAL SINGLE POINT ENERGY       -76.377314789135
-------------------------   --------------------


                            ***************************************
                            *     ORCA property calculations      *
                            ***************************************

                                    ---------------------
                                    Active property flags
                                    ---------------------
   (+) Dipole Moment


------------------------------------------------------------------------------
                       ORCA ELECTRIC PROPERTIES CALCULATION
------------------------------------------------------------------------------

Dipole Moment Calculation                       ... on
Quadrupole Moment Calculation                   ... off
Polarizability Calculation                      ... off
GBWName                                         ... input.gbw
Electron density file                           ... input.scfp
The origin for moment calculation is the CENTER OF MASS  = (-2.697825, -2.508331  4.286234)

-------------
DIPOLE MOMENT
-------------
                                X             Y             Z
Electronic contribution:     -0.11826       0.08047       0.07766
Nuclear contribution   :      0.70614      -0.50230      -0.44645
                        -----------------------------------------
Total Dipole Moment    :      0.58788      -0.42182      -0.36879
                        -----------------------------------------
Magnitude (a.u.)       :      0.81213
Magnitude (Debye)      :      2.06426



--------------------
Rotational spectrum 
--------------------
 
Rotational constants in cm-1:    27.474514    14.033817     9.289034 
Rotational constants in MHz : 823665.217431 420723.257281 278478.240701 

 Dipole components along the rotational axes: 
x,y,z [a.u.] :     0.022727     0.811808     0.000857 
x,y,z [Debye]:     0.057767     2.063451     0.002178 

 

Timings for individual modules:

Sum of individual times         ...        1.537 sec (=   0.026 min)
GTO integral calculation        ...        0.240 sec (=   0.004 min)  15.6 %
SCF iterations                  ...        1.297 sec (=   0.022 min)  84.4 %
                             ****ORCA TERMINATED NORMALLY****
TOTAL RUN TIME: 0 days 0 hours 0 minutes 1 seconds 720 msec
/var/spool/slurmd/job6367390/slurm_script: line 26: ​: command not found
