/var/spool/slurmd/job6541114/slurm_script: line 8: ​: command not found
/var/spool/slurmd/job6541114/slurm_script: line 13: ​: command not found
/var/spool/slurmd/job6541114/slurm_script: line 16: ​: command not found
/var/spool/slurmd/job6541114/slurm_script: line 22: ​: command not found

                                 *****************
                                 * O   R   C   A *
                                 *****************

           --- An Ab Initio, DFT and Semiempirical electronic structure package ---

                  #######################################################
                  #                        -***-                        #
                  #          Department of theory and spectroscopy      #
                  #               Directorship: Frank Neese             #
                  #        Max Planck Institute fuer Kohlenforschung    #
                  #                Kaiser Wilhelm Platz 1               #
                  #                 D-45470 Muelheim/Ruhr               #
                  #                      Germany                        #
                  #                                                     #
                  #                  All rights reserved                #
                  #                        -***-                        #
                  #######################################################


                         Program Version 4.2.0 -  RELEASE  -


 With contributions from (in alphabetic order):
   Daniel Aravena         : Magnetic Suceptibility
   Michael Atanasov       : Ab Initio Ligand Field Theory (pilot matlab implementation)
   Alexander A. Auer      : GIAO ZORA, VPT2
   Ute Becker             : Parallelization
   Giovanni Bistoni       : ED, misc. LED, open-shell LED, HFLED
   Martin Brehm           : Molecular dynamics
   Dmytro Bykov           : SCF Hessian
   Vijay G. Chilkuri      : MRCI spin determinant printing, contributions to CSF-ICE
   Dipayan Datta          : RHF DLPNO-CCSD density
   Achintya Kumar Dutta   : EOM-CC, STEOM-CC
   Dmitry Ganyushin       : Spin-Orbit,Spin-Spin,Magnetic field MRCI
   Miquel Garcia          : C-PCM Hessian, Gaussian charge scheme
   Yang Guo               : DLPNO-NEVPT2, CIM, IAO-localization
   Andreas Hansen         : Spin unrestricted coupled pair/coupled cluster methods
   Benjamin Helmich-Paris : CASSCF linear response (MC-RPA)
   Lee Huntington         : MR-EOM, pCC
   Robert Izsak           : Overlap fitted RIJCOSX, COSX-SCS-MP3, EOM
   Christian Kollmar      : KDIIS, OOCD, Brueckner-CCSD(T), CCSD density
   Simone Kossmann        : Meta GGA functionals, TD-DFT gradient, OOMP2, MP2 Hessian
   Martin Krupicka        : AUTO-CI
   Lucas Lang             : DCDCAS
   Dagmar Lenk            : GEPOL surface, SMD
   Dimitrios Liakos       : Extrapolation schemes; Compound Job, initial MDCI parallelization
   Dimitrios Manganas     : Further ROCIS development; embedding schemes
   Dimitrios Pantazis     : SARC Basis sets
   Taras Petrenko         : DFT Hessian,TD-DFT gradient, ASA, ECA, R-Raman, ABS, FL, XAS/XES, NRVS
   Peter Pinski           : DLPNO-MP2, DLPNO-MP2 Gradient
   Christoph Reimann      : Effective Core Potentials
   Marius Retegan         : Local ZFS, SOC
   Christoph Riplinger    : Optimizer, TS searches, QM/MM, DLPNO-CCSD(T), (RO)-DLPNO pert. Triples
   Tobias Risthaus        : Range-separated hybrids, TD-DFT gradient, RPA, STAB
   Michael Roemelt        : Original ROCIS implementation
   Masaaki Saitow         : Open-shell DLPNO-CCSD energy and density
   Barbara Sandhoefer     : DKH picture change effects
   Avijit Sen             : IP-ROCIS
   Kantharuban Sivalingam : CASSCF convergence, NEVPT2, FIC-MRCI
   Bernardo de Souza      : ESD, SOC TD-DFT
   Georgi Stoychev        : AutoAux, RI-MP2 NMR
   Willem Van den Heuvel  : Paramagnetic NMR
   Boris Wezisla          : Elementary symmetry handling
   Frank Wennmohs         : Technical directorship


 We gratefully acknowledge several colleagues who have allowed us to
 interface, adapt or use parts of their codes:
   Stefan Grimme, W. Hujo, H. Kruse,             : VdW corrections, initial TS optimization,
                  C. Bannwarth                     DFT functionals, gCP, sTDA/sTD-DF
   Ed Valeev, F. Pavosevic, A. Kumar             : LibInt (2-el integral package), F12 methods
   Garnet Chan, S. Sharma, J. Yang, R. Olivares  : DMRG
   Ulf Ekstrom                                   : XCFun DFT Library
   Mihaly Kallay                                 : mrcc  (arbitrary order and MRCC methods)
   Andreas Klamt, Michael Diedenhofen            : otool_cosmo (COSMO solvation model)
   Jiri Pittner, Ondrej Demel                    : Mk-CCSD
   Frank Weinhold                                : gennbo (NPA and NBO analysis)
   Christopher J. Cramer and Donald G. Truhlar   : smd solvation model
   Lars Goerigk                                  : TD-DFT with DH, B97 family of functionals
   V. Asgeirsson, H. Jonsson                     : NEB implementation
   FAccTs GmbH                                   : IRC, NEB, NEB-TS, Multilevel, MM, QM/MM, CI optimization
   S Lehtola, MJT Oliveira, MAL Marques          : LibXC Library


 Your calculation uses the libint2 library for the computation of 2-el integrals
 For citations please refer to: http://libint.valeyev.net

 Your ORCA version has been built with support for libXC version: 4.2.3
 For citations please refer to: https://tddft.org/programs/libxc/

 This ORCA versions uses:
   CBLAS   interface :  Fast vector & matrix operations
   LAPACKE interface :  Fast linear algebra routines
   SCALAPACK package :  Parallel linear algebra routines


----- Orbital basis set information -----
Your calculation utilizes the basis: cc-pVDZ 
       H, B-Ne : Obtained from the ccRepo (grant-hill.group.shef.ac.uk/ccrepo) Feb. 2017
                 T. H. Dunning, Jr., J. Chem. Phys. 90, 1007 (1989)
            He : Obtained from the ccRepo (grant-hill.group.shef.ac.uk/ccrepo) Feb. 2017
                 D. E. Woon, T. H. Dunning, Jr., J. Chem. Phys. 100, 2975 (1994)
  Li-Be, Na-Mg : Obtained from the ccRepo (grant-hill.group.shef.ac.uk/ccrepo) Feb. 2017
                 B. P. Prascher, D. E. Woon, K. A. Peterson, T. H. Dunning, Jr., A. K. Wilson, Theor. Chem. Acc. 128, 69 (2011)
         Al-Ar : Obtained from the ccRepo (grant-hill.group.shef.ac.uk/ccrepo) Feb. 2017
                 D. E. Woon, T. H. Dunning, Jr., J. Chem. Phys. 98, 1358 (1993)
            Ca : Obtained from the Peterson Research Group Website (tyr0.chem.wsu.edu/~kipeters) Feb. 2017
                 J. Koput, K. A. Peterson, J. Phys. Chem. 106, 9595 (2002)
         Sc-Zn : Obtained from the ccRepo (grant-hill.group.shef.ac.uk/ccrepo) Feb. 2017
                 N. B. Balabanov, K. A. Peterson, J. Chem. Phys. 123, 064107 (2005)
                 N. B. Balabanov, K. A. Peterson, J. Chem. Phys. 125, 074110 (2006)
         Ga-Kr : Obtained from the ccRepo (grant-hill.group.shef.ac.uk/ccrepo) Feb. 2017
                 A. K. Wilson, D. E. Woon, K. A. Peterson, T. H. Dunning, Jr., J. Chem. Phys. 110, 7667 (1999)

----- AuxC basis set information -----
Your calculation utilizes the auxiliary basis: cc-pVDZ/C 
  H-He, B, Ne, Al-Ar, Ga-Br : Obtained from the EMSL Basis Set Exchange (bse.pnl.gov) Feb. 2017
                              F. Weigend, A. Kohn, C. Hattig, J. Chem. Phys. 116, 3175 (2002)
               Li-Be, Na-Mg : Obtained from the EMSL Basis Set Exchange (bse.pnl.gov) Feb. 2017
                              C. Haettig, Phys. Chem. Chem. Phys. 7, 59 (2005)
                        C-F : Obtained from the EMSL Basis Set Exchange (bse.pnl.gov) Feb. 2017
                              C. Haettig, Phys. Chem. Chem. Phys. 7, 59 (2005)
                              F. Weigend, A. Kohn, C. Hattig, J. Chem. Phys. 116, 3175 (2002)
                         Kr : Obtained from the TURBOMOLE 7.0 basis set library
                              F. Weigend, A. Kohn, C. Hattig, J. Chem. Phys. 116, 3175 (2002)
                              S function revised in Sep. 2009

----- AuxJK basis set information -----
Your calculation utilizes the auxiliary basis: cc-pVTZ/JK 
  H, B-F, Al-Cl, Ga-Br : Obtained from the TURBOMOLE 7.0 basis set library

================================================================================
                                        WARNINGS
                       Please study these warnings very carefully!
================================================================================


WARNING: MDCI localization with Augmented Hessian Foster-Boys
  ===> : Switching off randomization!

WARNING: Post HF methods need fully converged wavefunctions
  ===> : Setting SCFConvForced true
         You can overwrite this default with %scf ConvForced false 


INFO   : the flag for use of LIBINT has been found!

================================================================================
                                       INPUT FILE
================================================================================
NAME = input.inp
|  1> ! dlpno-ccsd(t) cc-pvdz cc-pvdz/c cc-pvtz/jk rijk verytightscf TightPNO
|  2> *xyz 0 1
|  3>   C      0.158328    0.108721    0.233327
|  4>   H      1.032407   -0.083436   -0.419629
|  5>   H     -0.105718    1.160959    0.009695
|  6>   O     -1.505910   -1.337873    2.272245
|  7>   H     -0.929295   -0.931121    1.599741
|  8>   H     -1.123517   -2.199945    2.444084
|  9> **                         ****END OF INPUT****
================================================================================

                       ****************************
                       * Single Point Calculation *
                       ****************************

---------------------------------
CARTESIAN COORDINATES (ANGSTROEM)
---------------------------------
  C      0.158328    0.108721    0.233327
  H      1.032407   -0.083436   -0.419629
  H     -0.105718    1.160959    0.009695
  O     -1.505910   -1.337873    2.272245
  H     -0.929295   -0.931121    1.599741
  H     -1.123517   -2.199945    2.444084

----------------------------
CARTESIAN COORDINATES (A.U.)
----------------------------
  NO LB      ZA    FRAG     MASS         X           Y           Z
   0 C     6.0000    0    12.011    0.299197    0.205453    0.440924
   1 H     1.0000    0     1.008    1.950966   -0.157671   -0.792984
   2 H     1.0000    0     1.008   -0.199778    2.193895    0.018321
   3 O     8.0000    0    15.999   -2.845757   -2.528214    4.293921
   4 H     1.0000    0     1.008   -1.756113   -1.759564    3.023072
   5 H     1.0000    0     1.008   -2.123139   -4.157294    4.618649

--------------------------------
INTERNAL COORDINATES (ANGSTROEM)
--------------------------------
 C      0   0   0     0.000000000000     0.00000000     0.00000000
 H      1   0   0     1.107831191485     0.00000000     0.00000000
 H      1   2   0     1.107671598527   103.52430952     0.00000000
 O      1   2   3     3.003249728578   138.92227285   180.60082099
 H      4   1   2     0.974778784004     4.31393660   355.72688810
 H      4   1   2     0.958603766712   109.50074819     5.33492411

---------------------------
INTERNAL COORDINATES (A.U.)
---------------------------
 C      0   0   0     0.000000000000     0.00000000     0.00000000
 H      1   0   0     2.093497554521     0.00000000     0.00000000
 H      1   2   0     2.093195967539   103.52430952     0.00000000
 O      1   2   3     5.675319498786   138.92227285   180.60082099
 H      4   1   2     1.842064942925     4.31393660   355.72688810
 H      4   1   2     1.811498590031   109.50074819     5.33492411

---------------------
BASIS SET INFORMATION
---------------------
There are 3 groups of distinct atoms

 Group   1 Type C   : 17s4p1d contracted to 3s2p1d pattern {881/31/1}
 Group   2 Type H   : 4s1p contracted to 2s1p pattern {31/1}
 Group   3 Type O   : 17s4p1d contracted to 3s2p1d pattern {881/31/1}

Atom   0C    basis set group =>   1
Atom   1H    basis set group =>   2
Atom   2H    basis set group =>   2
Atom   3O    basis set group =>   3
Atom   4H    basis set group =>   2
Atom   5H    basis set group =>   2
---------------------------------
AUXILIARY/C BASIS SET INFORMATION
---------------------------------
There are 3 groups of distinct atoms

 Group   1 Type C   : 7s5p4d2f contracted to 7s5p4d2f pattern {1111111/11111/1111/11}
 Group   2 Type H   : 3s2p1d contracted to 3s2p1d pattern {111/11/1}
 Group   3 Type O   : 7s5p4d2f contracted to 7s5p4d2f pattern {1111111/11111/1111/11}

Atom   0C    basis set group =>   1
Atom   1H    basis set group =>   2
Atom   2H    basis set group =>   2
Atom   3O    basis set group =>   3
Atom   4H    basis set group =>   2
Atom   5H    basis set group =>   2
----------------------------------
AUXILIARY/JK BASIS SET INFORMATION
----------------------------------
There are 3 groups of distinct atoms

 Group   1 Type C   : 10s7p5d2f1g contracted to 10s7p5d2f1g pattern {1111111111/1111111/11111/11/1}
 Group   2 Type H   : 4s3p2d1f contracted to 4s3p2d1f pattern {1111/111/11/1}
 Group   3 Type O   : 10s7p5d2f1g contracted to 10s7p5d2f1g pattern {1111111111/1111111/11111/11/1}

Atom   0C    basis set group =>   1
Atom   1H    basis set group =>   2
Atom   2H    basis set group =>   2
Atom   3O    basis set group =>   3
Atom   4H    basis set group =>   2
Atom   5H    basis set group =>   2
------------------------------------------------------------------------------
                           ORCA GTO INTEGRAL CALCULATION
                           -- RI-GTO INTEGRALS CHOSEN --
------------------------------------------------------------------------------

                         BASIS SET STATISTICS AND STARTUP INFO

Gaussian basis set:
 # of primitive gaussian shells          ...   64
 # of primitive gaussian functions       ...   96
 # of contracted shells                  ...   24
 # of contracted basis functions         ...   48
 Highest angular momentum                ...    2
 Maximum contraction depth               ...    8
Auxiliary gaussian basis set:
 # of primitive gaussian shells          ...   90
 # of primitive gaussian functions       ...  278
 # of contracted shells                  ...   90
 # of contracted aux-basis functions     ...  278
 Highest angular momentum                ...    4
 Maximum contraction depth               ...    1
Ratio of auxiliary to basis functions    ...  5.79
Integral package used                  ... LIBINT
 One Electron integrals                  ... done
 Ordering auxiliary basis shells         ... done
 Integral threshhold             Thresh  ...  1.000e-12
 Primitive cut-off               TCut    ...  1.000e-14
 Pre-screening matrix                    ... done
 Shell pair data                         ... 
 Ordering of the shell pairs             ... done (   0.000 sec) 300 of 300 pairs
 Determination of significant pairs      ... done (   0.000 sec)
 Creation of shell pair data             ... done (   0.000 sec)
 Storage of shell pair data              ... done (   0.000 sec)
 Shell pair data done in (   0.000 sec)
 Computing two index integrals           ... done
 Cholesky decomposition of the V-matrix  ... done


Timings:
 Total evaluation time                   ...   0.105 sec (  0.002 min)
 One electron matrix time                ...   0.004 sec (  0.000 min) =  4.0%
 Schwartz matrix evaluation time         ...   0.083 sec (  0.001 min) = 79.1%
 Two index repulsion integral time       ...   0.001 sec (  0.000 min) =  1.0%
 Cholesky decomposition of V             ...   0.001 sec (  0.000 min) =  1.1%
 Three index repulsion integral time     ...   0.000 sec (  0.000 min) =  0.0%

-------------------------------------------------------------------------------
                                 ORCA SCF
-------------------------------------------------------------------------------

------------
SCF SETTINGS
------------
Hamiltonian:
 Ab initio Hamiltonian  Method          .... Hartree-Fock(GTOs)
 RI-approximation to the Coulomb term is turned on
   Number of auxiliary basis functions  .... 278
   RI-JK (J+K treated both via RI)      .... on


General Settings:
 Integral files         IntName         .... input
 Hartree-Fock type      HFTyp           .... RHF
 Total Charge           Charge          ....    0
 Multiplicity           Mult            ....    1
 Number of Electrons    NEL             ....   18
 Basis Dimension        Dim             ....   48
 Nuclear Repulsion      ENuc            ....     28.9483713355 Eh

Convergence Acceleration:
 DIIS                   CNVDIIS         .... on
   Start iteration      DIISMaxIt       ....    12
   Startup error        DIISStart       ....  0.200000
   # of expansion vecs  DIISMaxEq       ....     5
   Bias factor          DIISBfac        ....   1.050
   Max. coefficient     DIISMaxC        ....  10.000
 Newton-Raphson         CNVNR           .... off
 SOSCF                  CNVSOSCF        .... on
   Start iteration      SOSCFMaxIt      ....   150
   Startup grad/error   SOSCFStart      ....  0.003300
 Level Shifting         CNVShift        .... on
   Level shift para.    LevelShift      ....    0.2500
   Turn off err/grad.   ShiftErr        ....    0.0010
 Zerner damping         CNVZerner       .... off
 Static damping         CNVDamp         .... on
   Fraction old density DampFac         ....    0.7000
   Max. Damping (<1)    DampMax         ....    0.9800
   Min. Damping (>=0)   DampMin         ....    0.0000
   Turn off err/grad.   DampErr         ....    0.1000
 Fernandez-Rico         CNVRico         .... off

SCF Procedure:
 Maximum # iterations   MaxIter         ....   125
 SCF integral mode      SCFMode         .... Direct
   Integral package                     .... LIBINT
 Reset frequency        DirectResetFreq ....    20
 Integral Threshold     Thresh          ....  1.000e-12 Eh
 Primitive CutOff       TCut            ....  1.000e-14 Eh

Convergence Tolerance:
 Convergence Check Mode ConvCheckMode   .... Total+1el-Energy
 Convergence forced     ConvForced      .... 1
 Energy Change          TolE            ....  1.000e-09 Eh
 1-El. energy change                    ....  1.000e-06 Eh
 Orbital Gradient       TolG            ....  2.000e-06
 Orbital Rotation angle TolX            ....  2.000e-06
 DIIS Error             TolErr          ....  1.000e-08


Diagonalization of the overlap matrix:
Smallest eigenvalue                        ... 2.544e-02
Time for diagonalization                   ...    0.001 sec
Threshold for overlap eigenvalues          ... 1.000e-08
Number of eigenvalues below threshold      ... 0
Time for construction of square roots      ...    0.000 sec
Total time needed                          ...    0.001 sec

-------------------
DFT GRID GENERATION
-------------------

General Integration Accuracy     IntAcc      ...  4.340
Radial Grid Type                 RadialGrid  ... Gauss-Chebyshev
Angular Grid (max. acc.)         AngularGrid ... Lebedev-110
Angular grid pruning method      GridPruning ... 3 (G Style)
Weight generation scheme         WeightScheme... Becke
Basis function cutoff            BFCut       ...    1.0000e-12
Integration weight cutoff        WCut        ...    1.0000e-14
Grids for H and He will be reduced by one unit

# of grid points (after initial pruning)     ...   6548 (   0.0 sec)
# of grid points (after weights+screening)   ...   6435 (   0.0 sec)
nearest neighbour list constructed           ...    0.0 sec
Grid point re-assignment to atoms done       ...    0.0 sec
Grid point division into batches done        ...    0.0 sec
Reduced shell lists constructed in    0.1 sec

Total number of grid points                  ...     6435
Total number of batches                      ...      104
Average number of points per batch           ...       61
Average number of grid points per atom       ...     1072
Average number of shells per batch           ...    20.63 (85.95%)
Average number of basis functions per batch  ...    40.02 (83.37%)
Average number of large shells per batch     ...    17.34 (84.07%)
Average number of large basis fcns per batch ...    33.38 (83.41%)
Average number of aux-shells per batch       ...    20.63 (22.92%)
Average number of aux functions per batch    ...    40.02 (14.40%)
Maximum spatial batch extension              ...  22.11, 21.59, 25.79 au
Average spatial batch extension              ...   5.35,  4.78,  5.06 au

Time for grid setup =    0.071 sec

------------------------------
INITIAL GUESS: MODEL POTENTIAL
------------------------------
Loading Hartree-Fock densities                     ... done
Calculating cut-offs                               ... done
Setting up the integral package                    ... done
Initializing the effective Hamiltonian             ... done
Starting the Coulomb interaction                   ... done (   0.0 sec)
Reading the grid                                   ... done
Mapping shells                                     ... done
Starting the XC term evaluation                    ... done (   0.0 sec)
Transforming the Hamiltonian                       ... done (   0.0 sec)
Diagonalizing the Hamiltonian                      ... done (   0.0 sec)
Back transforming the eigenvectors                 ... done (   0.0 sec)
Now organizing SCF variables                       ... done
                      ------------------
                      INITIAL GUESS DONE (   0.2 sec)
                      ------------------
--------------
SCF ITERATIONS
--------------
ITER       Energy         Delta-E        Max-DP      RMS-DP      [F,P]     Damp
  0   -114.7965078417   0.000000000000 0.06876769  0.00341984  0.3275505 0.7000
  1   -114.6863032002   0.110204641519 0.06952230  0.00359789  0.3176040 0.7000
                               ***Turning on DIIS***
  2   -114.6997997921  -0.013496591918 0.04548900  0.00237359  0.1897355 0.7000
  3   -114.9313398537  -0.231540061627 0.04297593  0.00304689  0.0712902 0.0000
  4   -114.6857686995   0.245571154264 0.01893363  0.00115053  0.0790313 0.0000
  5   -114.7788816593  -0.093112959859 0.01253829  0.00069797  0.0418439 0.0000
  6   -114.8476106423  -0.068728982986 0.00668571  0.00037656  0.0178144 0.0000
  7   -114.8935218906  -0.045911248314 0.00215440  0.00013354  0.0052444 0.0000
                      *** Initiating the SOSCF procedure ***
                           *** Shutting down DIIS ***
                      *** Re-Reading the Fockian *** 
                      *** Removing any level shift *** 
ITER      Energy       Delta-E        Grad      Rot      Max-DP    RMS-DP
  8   -114.90863219  -0.0151102951  0.000475  0.000475  0.000695  0.000046
  9   -114.91330828  -0.0046760944  0.000193  0.000252  0.000340  0.000024
 10   -114.91330860  -0.0000003177  0.000088  0.000138  0.000166  0.000014
 11   -114.91330866  -0.0000000637  0.000015  0.000013  0.000020  0.000002
 12   -114.91330866  -0.0000000020  0.000002  0.000006  0.000006  0.000001
 13   -114.91330866  -0.0000000002  0.000001  0.000002  0.000002  0.000000
                 **** Energy Check signals convergence ****
              ***Rediagonalizing the Fockian in SOSCF/NRSCF***

               *****************************************************
               *                     SUCCESS                       *
               *           SCF CONVERGED AFTER  14 CYCLES          *
               *****************************************************


----------------
TOTAL SCF ENERGY
----------------

Total Energy       :         -114.91330866 Eh           -3126.95010 eV

Components:
Nuclear Repulsion  :           28.94837134 Eh             787.72523 eV
Electronic Energy  :         -143.86168000 Eh           -3914.67533 eV
One Electron Energy:         -214.42375255 Eh           -5834.76694 eV
Two Electron Energy:           70.56207255 Eh            1920.09161 eV

Virial components:
Potential Energy   :         -229.73822900 Eh           -6251.49503 eV
Kinetic Energy     :          114.82492033 Eh            3124.54493 eV
Virial Ratio       :            2.00076977


---------------
SCF CONVERGENCE
---------------

  Last Energy change         ...   -1.8929e-11  Tolerance :   1.0000e-09
  Last MAX-Density change    ...    1.0151e-06  Tolerance :   1.0000e-08
  Last RMS-Density change    ...    7.2806e-08  Tolerance :   1.0000e-09
  Last Orbital Gradient      ...    5.0497e-07  Tolerance :   2.0000e-06
  Last Orbital Rotation      ...    1.7284e-06  Tolerance :   2.0000e-06

             **** THE GBW FILE WAS UPDATED (input.gbw) ****
             **** DENSITY FILE WAS UPDATED (input.scfp) ****
             **** ENERGY FILE WAS UPDATED (input.en.tmp) ****
             **** THE GBW FILE WAS UPDATED (input.gbw) ****
             **** DENSITY FILE WAS UPDATED (input.scfp) ****
----------------
ORBITAL ENERGIES
----------------

  NO   OCC          E(Eh)            E(eV) 
   0   2.0000     -20.501152      -557.8647 
   1   2.0000     -11.317410      -307.9624 
   2   2.0000      -1.287110       -35.0240 
   3   2.0000      -0.912513       -24.8307 
   4   2.0000      -0.657147       -17.8819 
   5   2.0000      -0.585290       -15.9266 
   6   2.0000      -0.526656       -14.3311 
   7   2.0000      -0.448011       -12.1910 
   8   2.0000      -0.414514       -11.2795 
   9   0.0000       0.038961         1.0602 
  10   0.0000       0.178889         4.8678 
  11   0.0000       0.237620         6.4660 
  12   0.0000       0.243304         6.6206 
  13   0.0000       0.395773        10.7695 
  14   0.0000       0.563421        15.3315 
  15   0.0000       0.713102        19.4045 
  16   0.0000       0.713751        19.4222 
  17   0.0000       0.807063        21.9613 
  18   0.0000       0.832101        22.6426 
  19   0.0000       0.845004        22.9937 
  20   0.0000       0.888468        24.1764 
  21   0.0000       1.023389        27.8478 
  22   0.0000       1.188910        32.3519 
  23   0.0000       1.211548        32.9679 
  24   0.0000       1.231826        33.5197 
  25   0.0000       1.267074        34.4788 
  26   0.0000       1.297588        35.3092 
  27   0.0000       1.334701        36.3191 
  28   0.0000       1.530685        41.6520 
  29   0.0000       1.533873        41.7388 
  30   0.0000       1.721681        46.8493 
  31   0.0000       1.728319        47.0300 
  32   0.0000       1.740553        47.3629 
  33   0.0000       1.902530        51.7705 
  34   0.0000       1.989240        54.1300 
  35   0.0000       1.993755        54.2528 
  36   0.0000       1.998020        54.3689 
  37   0.0000       2.054927        55.9174 
  38   0.0000       2.276741        61.9533 
  39   0.0000       2.510419        68.3120 
  40   0.0000       2.644593        71.9630 
  41   0.0000       2.660587        72.3983 
  42   0.0000       2.755643        74.9849 
  43   0.0000       3.318998        90.3145 
  44   0.0000       3.379981        91.9740 
  45   0.0000       3.545767        96.4852 
  46   0.0000       3.930188       106.9459 
  47   0.0000       4.203414       114.3807 

                    ********************************
                    * MULLIKEN POPULATION ANALYSIS *
                    ********************************

-----------------------
MULLIKEN ATOMIC CHARGES
-----------------------
   0 C :   -0.136195
   1 H :    0.074627
   2 H :    0.080182
   3 O :   -0.367567
   4 H :    0.214837
   5 H :    0.134116
Sum of atomic charges:   -0.0000000

--------------------------------
MULLIKEN REDUCED ORBITAL CHARGES
--------------------------------
  0 C s       :     3.590676  s :     3.590676
      pz      :     0.673631  p :     2.514471
      px      :     0.728547
      py      :     1.112293
      dz2     :     0.002170  d :     0.031048
      dxz     :     0.010794
      dyz     :     0.003790
      dx2y2   :     0.014118
      dxy     :     0.000176
  1 H s       :     0.895213  s :     0.895213
      pz      :     0.008588  p :     0.030160
      px      :     0.013986
      py      :     0.007587
  2 H s       :     0.889592  s :     0.889592
      pz      :     0.004107  p :     0.030225
      px      :     0.005745
      py      :     0.020373
  3 O s       :     3.658651  s :     3.658651
      pz      :     1.674119  p :     4.697656
      px      :     1.691518
      py      :     1.332019
      dz2     :     0.001806  d :     0.011260
      dxz     :     0.003259
      dyz     :     0.000375
      dx2y2   :     0.001963
      dxy     :     0.003857
  4 H s       :     0.692437  s :     0.692437
      pz      :     0.037670  p :     0.092726
      px      :     0.030094
      py      :     0.024962
  5 H s       :     0.780257  s :     0.780257
      pz      :     0.021313  p :     0.085627
      px      :     0.022584
      py      :     0.041730


                     *******************************
                     * LOEWDIN POPULATION ANALYSIS *
                     *******************************

----------------------
LOEWDIN ATOMIC CHARGES
----------------------
   0 C :    0.075618
   1 H :    0.007851
   2 H :    0.011503
   3 O :   -0.135286
   4 H :    0.006024
   5 H :    0.034289

-------------------------------
LOEWDIN REDUCED ORBITAL CHARGES
-------------------------------
  0 C s       :     3.290018  s :     3.290018
      pz      :     0.673936  p :     2.573172
      px      :     0.754278
      py      :     1.144958
      dz2     :     0.005022  d :     0.061192
      dxz     :     0.020603
      dyz     :     0.005692
      dx2y2   :     0.026700
      dxy     :     0.003174
  1 H s       :     0.907398  s :     0.907398
      pz      :     0.025504  p :     0.084751
      px      :     0.036243
      py      :     0.023003
  2 H s       :     0.903392  s :     0.903392
      pz      :     0.014786  p :     0.085105
      px      :     0.016534
      py      :     0.053785
  3 O s       :     3.386434  s :     3.386434
      pz      :     1.651419  p :     4.728160
      px      :     1.689118
      py      :     1.387623
      dz2     :     0.003105  d :     0.020692
      dxz     :     0.005319
      dyz     :     0.001618
      dx2y2   :     0.003575
      dxy     :     0.007075
  4 H s       :     0.761326  s :     0.761326
      pz      :     0.096114  p :     0.232650
      px      :     0.082034
      py      :     0.054502
  5 H s       :     0.756854  s :     0.756854
      pz      :     0.053520  p :     0.208856
      px      :     0.063074
      py      :     0.092263


                      *****************************
                      * MAYER POPULATION ANALYSIS *
                      *****************************

  NA   - Mulliken gross atomic population
  ZA   - Total nuclear charge
  QA   - Mulliken gross atomic charge
  VA   - Mayer's total valence
  BVA  - Mayer's bonded valence
  FA   - Mayer's free valence

  ATOM       NA         ZA         QA         VA         BVA        FA
  0 C      6.1362     6.0000    -0.1362     2.0026     2.0026    -0.0000
  1 H      0.9254     1.0000     0.0746     0.9733     0.9733    -0.0000
  2 H      0.9198     1.0000     0.0802     0.9732     0.9732     0.0000
  3 O      8.3676     8.0000    -0.3676     2.0085     2.0085    -0.0000
  4 H      0.7852     1.0000     0.2148     1.0094     1.0094    -0.0000
  5 H      0.8659     1.0000     0.1341     1.0369     1.0369    -0.0000

  Mayer bond orders larger than 0.100000
B(  0-C ,  1-H ) :   0.9810 B(  0-C ,  2-H ) :   0.9812 B(  3-O ,  4-H ) :   0.9744 
B(  3-O ,  5-H ) :   1.0274 

-------
TIMINGS
-------

Total SCF time: 0 days 0 hours 0 min 1 sec 

Total time                  ....       1.609 sec
Sum of individual times     ....       1.545 sec  ( 96.0%)

Fock matrix formation       ....       1.378 sec  ( 85.7%)
Diagonalization             ....       0.003 sec  (  0.2%)
Density matrix formation    ....       0.000 sec  (  0.0%)
Population analysis         ....       0.001 sec  (  0.0%)
Initial guess               ....       0.089 sec  (  5.6%)
Orbital Transformation      ....       0.000 sec  (  0.0%)
Orbital Orthonormalization  ....       0.000 sec  (  0.0%)
DIIS solution               ....       0.002 sec  (  0.1%)
SOSCF solution              ....       0.001 sec  (  0.1%)


------------------------------------------------------------------------------- 
                              ORCA-MATRIX DRIVEN CI                            
------------------------------------------------------------------------------- 


Wavefunction type
-----------------
Correlation treatment                      ...      CCSD     
Single excitations                         ... ON
Orbital optimization                       ... OFF
Calculation of Z vector                    ... OFF
Calculation of Brueckner orbitals          ... OFF
Perturbative triple excitations            ... ON
Calculation of F12 correction              ... OFF
Frozen core treatment                      ... chemical core (4 el)
Reference Wavefunction                     ... RHF
  Internal Orbitals:     2 ...    8 (  7 MO's/ 14 electrons)
  Virtual  Orbitals:     9 ...   47 ( 39 MO's              )
Number of AO's                             ...     48
Number of electrons                        ...     18
Number of correlated electrons             ...     14

Algorithmic settings
--------------------
Integral transformation                    ... All integrals via the RI transformation
K(C) Formation                             ... RI-DLPNO
   PNO-Integral Storage                    ... ON DISK
   PNO occupation number cut-off           ... 1.000e-07
   Singles PNO occupation number cut-off   ... 3.000e-09
   PNO Mulliken prescreening cut-off       ... 1.000e-03
   Domain cut-off (Mulliken population)    ... 1.000e-03
   PNO Normalization                       ...    1
Maximum number of iterations               ...        50
Convergence tolerance (max. residuum)      ... 1.000e-06
Level shift for amplitude update           ... 2.000e-01
Maximum number of DIIS vectors             ...         7
DIIS turned on at iteration                ...         0
Damping before turning on DIIS             ...     0.500
Damping after turning on DIIS              ...     0.000
Pair specific amplitude update             ... OFF
Natural orbital iterations                 ... OFF
Perturbative natural orbital generation    ... OFF
Printlevel                                 ... 2

Singles Fock matrix elements calculated using PNOs.

Memory handling:
----------------
Maximum memory for working arrays          ...    512 MB
Data storage in matrix containers          ... UNCOMPRESSED
Data type for integral storage             ... DOUBLE
In-Core Storage of quantities:
   Amplitudes+Sigma Vector      ... NO
   J+K operators                ... NO
   DIIS vectors                 ... NO
   3-external integrals         ... NO
   4-external integrals         ... NO

Localization treatment:
-----------------------
Localization option                        ...    6
Localization threshhold                    ... -1.0e+00
Using relative localization threshhold     ... 1.0e-08
Neglect threshold for strong pairs         ... 1.000e-05 Eh
Prescreening threshold for very weak pairs ... 1.000e-07 Eh

Initializing the integral package          ... done
Localizing the valence orbitals
------------------------------------------------------------------------------
                           ORCA ORBITAL LOCALIZATION
------------------------------------------------------------------------------

Input orbitals are from                  ... input.gbw
Output orbitals are to                   ... input.loc
Max. number of iterations                ... 128
Localizations seeded randomly            ... off
Convergence tolerance                    ... 2.000e-07
Using relative localization threshhold   ... 1.000e-08
Treshold for strong local MOs            ... 9.500e-01
Treshold for bond MOs                    ... 8.500e-01
Operator                                 ... 0
Orbital range for localization           ... 2 to 8
Localization criterion                   ... FOSTER-BOYS (AUGMENTED HESSIAN)
Doing the dipole integrals     ... o.k.
Initial value of the localization sum :   132.981262
ITERATION   0 : L=  136.0428790155 DL=  3.06e+00 (AVERGE_DL)=    0.3818262493 
ITERATION   1 : L=  136.4900092175 DL=  4.47e-01 (AVERGE_DL)=    0.1459174917 
ITERATION   2 : L=  136.5018350694 DL=  1.18e-02 (AVERGE_DL)=    0.0237304826 
ITERATION   3 : L=  136.5021916214 DL=  3.57e-04 (AVERGE_DL)=    0.0041205175 
ITERATION   4 : L=  136.5021977352 DL=  6.11e-06 (AVERGE_DL)=    0.0005395705 
ITERATION   5 : L=  136.5021979105 DL=  1.75e-07 (AVERGE_DL)=    0.0000913520 
LOCALIZATION SUM CONVERGED

------------------------------------------------------
AUGMENTED HESSIAN OPTIMIZATION OF FOSTER-BOYS ORBITALS
------------------------------------------------------

Spin operator:           0
Orbital window:          2 to 8
Number of iterations:    128
Gradient tolerance:      2.000e-07
Number of pairs:         21
Davidson threshold:      2000
Diagonalization method:  LAPACK
Iter:    0   L: 136.5021979105   Grad. norm: 3.627496e-04
   *** Likely close to a maximum now. ***
       Augmented Hessian eigenvalues:  1.09e-08 -1.33e+00 -3.44e+00 -4.98e+00 ... 
Iter:    1   L: 136.5021979160   Grad. norm: 2.616828e-09
LOCALIZATION HAS CONVERGED.

Eigenvalues of the Hessian:
  0 -1.331e+00
  1 -3.441e+00
  2 -4.980e+00
  3 -5.481e+00
  4 -7.430e+00
  5 -9.927e+00
  6 -1.285e+01
  7 -1.798e+01
  8 -2.075e+01
  9 -5.869e+01
    ...


------------------------------------------------------------------------------- 
                    LOCALIZED MOLECULAR ORBITAL COMPOSITIONS                   
------------------------------------------------------------------------------- 

The Mulliken populations for each LMO on each atom are computed
The LMO`s will be ordered according to atom index and type
  (A) Strongly localized MO`s have populations of >=0.950 on one atom
  (B) Two center bond orbitals have populations of >=0.850 on two atoms
  (C) Other MO`s are considered to be `delocalized`

FOUND  -   3 strongly local MO`s
       -   4 two center bond MO`s
       -   0 significantly delocalized MO`s

Rather strongly localized orbitals:
MO   4:   3O  -   0.992342
MO   3:   3O  -   0.991940
MO   2:   0C  -   1.008309
Bond-like localized orbitals:
MO   8:   5H  -   0.433431  and   3O  -   0.574514
MO   7:   4H  -   0.383121  and   3O  -   0.626052
MO   6:   2H  -   0.475647  and   0C  -   0.533714
MO   5:   1H  -   0.478976  and   0C  -   0.530090
Localized MO's were stored in: input.loc

Localizing the core orbitals
------------------------------------------------------------------------------
                           ORCA ORBITAL LOCALIZATION
------------------------------------------------------------------------------

Input orbitals are from                  ... input.loc
Output orbitals are to                   ... input.loc
Max. number of iterations                ... 128
Localizations seeded randomly            ... off
Convergence tolerance                    ... 2.000e-07
Using relative localization threshhold   ... 1.000e-08
Treshold for strong local MOs            ... 9.500e-01
Treshold for bond MOs                    ... 8.500e-01
Operator                                 ... 0
Orbital range for localization           ... 0 to 1
Localization criterion                   ... FOSTER-BOYS (AUGMENTED HESSIAN)
Doing the dipole integrals     ... o.k.
Initial value of the localization sum :    33.252761
ITERATION   0 : L=   33.2527619363 DL=  8.33e-07 (AVERGE_DL)=    0.0009127351 
LOCALIZATION SUM CONVERGED

------------------------------------------------------
AUGMENTED HESSIAN OPTIMIZATION OF FOSTER-BOYS ORBITALS
------------------------------------------------------

Spin operator:           0
Orbital window:          0 to 1
Number of iterations:    128
Gradient tolerance:      2.000e-07
Number of pairs:         1
Davidson threshold:      2000
Diagonalization method:  LAPACK
Iter:    0   L: 33.2527619363   Grad. norm: 1.541441e-18
   *** Likely close to a maximum now. ***
       Augmented Hessian eigenvalues:  1.84e-38 -1.29e+02
Iter:    1   L: 33.2527619363   Grad. norm: 5.293956e-23
LOCALIZATION HAS CONVERGED.

Eigenvalues of the Hessian:
  0 -1.289e+02


------------------------------------------------------------------------------- 
                    LOCALIZED MOLECULAR ORBITAL COMPOSITIONS                   
------------------------------------------------------------------------------- 

The Mulliken populations for each LMO on each atom are computed
The LMO`s will be ordered according to atom index and type
  (A) Strongly localized MO`s have populations of >=0.950 on one atom
  (B) Two center bond orbitals have populations of >=0.850 on two atoms
  (C) Other MO`s are considered to be `delocalized`

FOUND  -   2 strongly local MO`s
       -   0 two center bond MO`s
       -   0 significantly delocalized MO`s

Rather strongly localized orbitals:
MO   1:   3O  -   1.000045
MO   0:   0C  -   1.000027
Localized MO's were stored in: input.loc

Warning: reference  - re-canonicalizations have been set to INT 1 VIRT 1
Warning: internal orbitals are localized - no re-canonicalization of internal orbitals
Warning: UsePNO is turned on - no re-canonicalization of internal and virtual orbitals

--------------------------
CLOSED-SHELL FOCK OPERATOR
--------------------------

RI-JK section for the Fock operator:
  RHF full Fock operator         ... done
  RHF frozen core Fock operator  ... done
Time needed for Fock operator              ...            0.244 sec
Reference energy                           ...   -114.913308664

--------------
DLPNO SETTINGS (2015 fully linear scaling implementation)
--------------

TCutMKN:           1.000e-03
TCutPAO:           1.000e-03
TCutPNO:           1.000e-07
TCutPNOSingles:    3.000e-09
TCutEN:            9.700e-01
TCutPAOExt:        1.000e-01
TCutPairs:         1.000e-05
TCutPre:           1.000e-07
TCutOSV:           1.000e-06
TCutDOij:          1.000e-05
TCutDO:            5.000e-03
TCutC:             1.000e-04
TCutCPAO:          1.000e-03
TCutCMO:           1.000e-03
TScaleDOMP2PreScr: 2.000e+00
TScaleMKNMP2PreScr:1.000e+01
TScalePNOMP2PreScr:1.000e+00
PAO overlap thresh 1.000e-08
Using PNOs for Singles Fock computation
Use new domains
Use fully linear algorithm
TCutTNO:           1.000e-09
TCutMP2Pairs:      1.000e-06
TCutDOStrong:      2.000e-03
TCutMKNStrong:     1.000e-02
TCutMKNWeak:       1.000e-01
TCutDOWeak:        4.000e-03
NTCutTNO:          1

--------------------------
Calculating differential overlap integrals ... ok
--------------------------
ELECTRON PAIR PRESCREENING
--------------------------

Dipole-based pair screening          .... used

   TCutDOij = 1.000000e-05
   TCutPre  = 1.000000e-07
   .... Finished loop over pairs
Total time spent in the prescreening                  ...     0.000 sec
sum of pair energies estimated for screened out pairs ...       0.000000000000 Eh
Thresholds for map construction and integral transformation for crude MP2:
   TCutMKN                    ...     1.0e-02
   TCutDO                     ...     1.0e-02
   TCutPairs                  ...     1.0e-05
   TCutPNO_CrudeMP2           ...     1.0e-07
   TCutPNOSingles_CrudeMP2    ...     3.0e-09
--------------------------------
LOCAL RI TRANSFORMATION (IAVPAO)
--------------------------------

Orbital window:       2 to 8
Number of PAOs:      48
Basis functions:     48 (24 shells)
Aux. functions:     168 (60 shells)

Processing maps (0.0 sec)
Average map sizes:
   Aux shells -> MOs               7.0
   Aux shells -> PAOs             48.0
   MOs        -> AO shells        24.0
   PAOs       -> AO shells        24.0

Calculating integrals (0.1 sec, 0.433 MB)
Sorting integrals (0.0 sec, 0.431 MB)
Total time for the integral transformation: 0.1 sec
--------------------------------
INITIAL GUESS AND PNO GENERATION
--------------------------------

PNO truncation parameters                   .... 
    PAOOverlapThresh   =        1.000e-08

    TCutPairs          =        1.000e-05
    TCutPNO            =        1.000e-07
    TCutPNOSingles     =        3.000e-09
    TCutMP2Pairs       =        1.000e-06
    TCutMKN            =        1.000e-02
    TCutDO             =        1.000e-02

Pair selection                          .... not used
Type of local MP2 treatment                 .... semi-local MP2
Strategy for PNO selection                  .... occupation number selection
Pair density normalization                  .... MP2 norm
Spin component scaling                      .... not used

   .... Finished loop over pairs
Making pair pair interaction lists          ... done

                       ===========================
                         28 OF   28 PAIRS ARE KEPT CCSD PAIRS
                          0 OF   28 PAIRS ARE KEPT MP2 PAIRS FOR (T)
                          0 OF   28 PAIRS ARE SKIPPED
                       ===========================

Total time spent in the initial guess                 ...     0.021 sec
SL-MP2 correlation energy (all non-screened pairs)    ...      -0.307022549669 Eh

Initial PNO correlation energy                        ...      -0.307000968172 Eh
sum of pair energies prescreened and skipped MP2 pairs...       0.000000000000 Eh
sum of pair energies of crude MP2 skipped pairs only  ...       0.000000000000 Eh
sum of MP2 pair energies for pairs that were not kept ...       0.000000000000 Eh
sum of PNO error estimates for the kept pairs         ...      -0.000021581497 Eh
                                                          --------------------
sum of all corrections                                         -0.000021581497
Initial total correlation energy                               -0.307022549669
Thresholds for map construction and integral transformation for fine MP2 and CCSD(T) calculation:
   TCutMKN   ...     1.0e-03
   TCutDO    ...     5.0e-03
   TCutPairs ...     1.0e-05
   TCutCMO   ...     1.0e-03
   TCutCPAO  ...     1.0e-03

Thresholds for map construction and integral transformation for strong Triples:
   TCutMKN   ...     1.0e-02
   TCutDO    ...     1.0e-02
   TCutCMO   ...     1.0e-03
   TCutCPAO  ...     1.0e-03

Thresholds for map construction and integral transformation for weak Triples:
   TCutMKN   ...     1.0e-01
   TCutDO    ...     2.0e-02
   TCutCMO   ...     1.0e-03
   TCutCPAO  ...     1.0e-03

--------------------------------
LOCAL RI TRANSFORMATION (IAVPAO)
--------------------------------

Orbital window:       2 to 8
Number of PAOs:      48
Basis functions:     48 (24 shells)
Aux. functions:     168 (60 shells)

Processing maps (0.0 sec)
Average map sizes:
   Aux shells -> MOs               7.0
   Aux shells -> PAOs             48.0
   MOs        -> AO shells        24.0
   PAOs       -> AO shells        24.0

Calculating integrals (0.1 sec, 0.433 MB)
Sorting integrals (0.0 sec, 0.431 MB)
Total time for the integral transformation: 0.1 sec
--------------------------------
INITIAL GUESS AND PNO GENERATION
--------------------------------

PNO truncation parameters                   .... 
    ScaleTCutPNO       =        1.000e-02
    PAOOverlapThresh   =        1.000e-08

    TCutPairs          =        1.000e-05
    TCutPNO            =        1.000e-07
    TCutPNOSingles     =        3.000e-09
    TCutMP2Pairs       =        1.000e-06
    TCutMKN            =        1.000e-03
    TCutDO             =        5.000e-03

Pair selection                          .... not used
Type of local MP2 treatment                 .... full local PMP2
Strategy for PNO selection                  .... occupation number selection
Pair density normalization                  .... MP2 norm
Spin component scaling                      .... not used

PASS-1: Formation of initial guess LMP2 amplitudes
Initial amplitudes guess done. Entering LMP2 iteration loop:
   Max. no of iterations          ...  50
   Energy convergence tolerance   ...    1.0e-07
   Residual convergence tolerance ...    5.0e-07
   Fock matrix cutoff             ...    1.0e-05 Eh
   DIIS convergence acceleration parameters:
        Max # vectors in DIIS     ... 7
        Start iteration of DIIS   ... 0
        Levelshift                ... 2.000e-01
        Damping factor 1          ... 5.000e-01
        Damping factor 2          ... 1.000e+00
   L-MP2 PNO cut-off              ...   1.0e-09
   L-MP2 PNO cut-off (core)       ...   1.0e-11
                           *** Turning on DIIS ***
LMP2-Iter=   0:  ELMP2= -0.310823449456  DE=   3.6e-03 RMAX=   1.2e-02
LMP2-Iter=   1:  ELMP2= -0.313975294877  DE=   3.2e-03 RMAX=   3.1e-03
LMP2-Iter=   2:  ELMP2= -0.314393196956  DE=   4.2e-04 RMAX=   6.4e-04
LMP2-Iter=   3:  ELMP2= -0.314437912435  DE=   4.5e-05 RMAX=   2.2e-04
LMP2-Iter=   4:  ELMP2= -0.314442947977  DE=   5.0e-06 RMAX=   5.7e-05
LMP2-Iter=   5:  ELMP2= -0.314442841493  DE=   1.1e-07 RMAX=   1.2e-05
LMP2-Iter=   6:  ELMP2= -0.314442775854  DE=   6.6e-08 RMAX=   2.1e-06
LMP2-Iter=   7:  ELMP2= -0.314442781497  DE=   5.6e-09 RMAX=   4.6e-07
LMP2-Iter=   8:  ELMP2= -0.314442789423  DE=   7.9e-09 RMAX=   5.9e-08 => CONVERGED
PASS-2: Formation of Pair natural orbitals
   .... Finished loop over pairs

 PNO Occupation Number Statistics: 
  | Av. % of trace(Dij) retained        ...  99.687628038941
  | sigma^2 in % of trace(Dij) retained ...   2.84e-01
  | Av. % of trace(Di) retained         ...  99.999986794925
  | sigma^2 in % of trace(Di) retained  ...   1.45e-10
 Distributions of % trace(Dij) recovered:
  |       >= 99.9  ...    17 ( 60.7 % of all pairs)
  |   [90.0, 99.0) ...     6 ( 21.4 % of all pairs)
  |   [99.0, 99.9) ...     5 ( 17.9 % of all pairs)
 Distributions of % trace(Di) recovered :
  |       >= 99.9  ...     7 (100.0 % of all I-pairs )

Making pair pair interaction lists          ... done

                       ===========================
                         28 OF   28 PAIRS ARE KEPT
                       ===========================

Total time spent in the initial guess                 ...     0.145 sec
L-MP2 correlation energy (all non-screened pairs)     ...      -0.314442789423 Eh
L-MP2 PNO error correction                            ...      -0.000000178543 Eh
                                                          --------------------
Initial total L-MP2 energy (non-screened pairs)       ...      -0.314442967966 Eh

Initial PNO correlation energy                        ...      -0.314423236191 Eh
sum of pair energies estimated for screened out pairs ...       0.000000000000 Eh
sum of MP2 pair energies for pairs that were not kept ...       0.000000000000 Eh
sum of PNO error estimates for the kept pairs         ...      -0.000019731775 Eh
                                                          --------------------
sum of all corrections                                         -0.000019731775
Initial total correlation energy                               -0.314442967966
Thresholds for map construction and integral transformation for fine MP2 and CCSD(T) calculation:
   TCutMKN   ...     1.0e-03
   TCutDO    ...     5.0e-03
   TCutPairs ...     1.0e-05
   TCutCMO   ...     1.0e-03
   TCutCPAO  ...     1.0e-03

Time for aux screen maps:            0.000
Time for maps after fine MP2:            0.000
-----------------------------
LOCAL RI TRANSFORMATION (IJV)
-----------------------------

Orbital window:       2 to 8
Basis functions:     48 (24 shells)
Aux. functions:     168 (60 shells)

Processing maps (0.0 sec)
Average map sizes:
   Aux shells -> MOs(i)            7.0
   Aux shells -> MOs(j)            7.0
   MOs        -> AO shells        24.0

Calculating integrals (0.1 sec, 0.065 MB)
Sorting integrals (0.0 sec, 0.063 MB)
Total time for the integral transformation: 0.1 sec
--------------------------------
LOCAL RI TRANSFORMATION (VABPAO)
--------------------------------

Number of PAOs:      48
Basis functions:     48 (24 shells)
Aux. functions:     168 (60 shells)

Processing maps (0.0 sec)
Average map sizes:
   Aux shells -> PAOs             48.0
   PAOs       -> AO shells        24.0

Calculating integrals (0.1 sec, 2.955 MB)
Finished


-------------------------------------
Pair Pair Term precalculation with     
RI-(ij|mn) and (im|jn) transformation  
ON THE FLY                             
-------------------------------------

   IBatch   1 (of   1)              ... done (    1.405 sec)
Total EXT                           ...           1.405 sec

---------------------
RI-PNO TRANSFORMATION
---------------------

Total Number of PNOs                   ...   538
Average number of PNOs per pair        ...    19
Maximal number of PNOs per pair        ...    28
   #pairs with  1 -  5 PNOs   :    0
   #pairs with  6 - 10 PNOs   :    1
   #pairs with 11 - 15 PNOs   :    5
   #pairs with 16 - 20 PNOs   :   11
   #pairs with 21 - 25 PNOs   :   10
   #pairs with 26 - 30 PNOs   :    1
   #pairs with 31 - 35 PNOs   :    0
   #pairs with 36 - 40 PNOs   :    0
   #pairs with 41 - 45 PNOs   :    0
   #pairs with 46 - 50 PNOs   :    0

Generation of (ij|ab)[P] integrals            ... on
Generation of (ia|bc)[P],(ja|bc)[P] integrals ... on
Storage of 3 and 4 external integrals         ... on
Generation of ALL (ka|bc)[P] integrals        ... on
Keep RI integrals in memory                   ... off

Ibatch:  1 (of  1)
Starting 2-4 index PNO integral generation ... done

Timings:
Total PNO integral transformation time     ...          0.144 sec
Size of the 3-external file                ...         1 MB
Size of the 4-external file                ...         5 MB
Size of the IKJL file                      ...         0 MB
Size of the all 3-external file            ...         6 MB
Size of the 1-external file                ...         0 MB

Making pair/pair overlap matrices          ... done (    0.008 sec)
Size of the pair overlap file              ... 1 MB
Redoing the guess amplitudes               ... done (    0.000 sec)

-------------------------
FINAL STARTUP INFORMATION
-------------------------

E(0)                                       ...   -114.913308664
E(L-MP2)                                   ...     -0.314442968
E(L-MP2) including corrections             ...     -0.314442968
Initial E(tot)                             ...   -115.227751632
<T|T>                                      ...      0.087307781
Number of pairs included                   ... 28
Total number of pairs                      ... 28

------------------------------------------------
                  RHF COUPLED CLUSTER ITERATIONS
------------------------------------------------

Number of PNO amplitudes to be optimized   ...        10846
Number of non-PNO amplitudes               ...        42588
Untruncated number of regular amplitudes   ...        42588

Iter       E(tot)           E(Corr)          Delta-E          Residual     Time
  0   -115.220490235     -0.307161839      0.007281129      0.022538608    0.15
                           *** Turning on DIIS ***
  1   -115.247474602     -0.334146207     -0.026984368      0.017149229    0.14
  2   -115.260478947     -0.347150551     -0.013004344      0.011205459    0.14
  3   -115.262303989     -0.348975594     -0.001825043      0.007989057    0.14
  4   -115.263138359     -0.349809963     -0.000834369      0.005088726    0.14
  5   -115.263622713     -0.350294317     -0.000484354      0.002411103    0.14
  6   -115.263847457     -0.350519062     -0.000224745      0.000614732    0.14
  7   -115.263888936     -0.350560541     -0.000041479      0.000208012    0.14
  8   -115.263899845     -0.350571450     -0.000010909      0.000088403    0.15
  9   -115.263897296     -0.350568900      0.000002549      0.000040031    0.14
 10   -115.263897775     -0.350569379     -0.000000479      0.000013757    0.14
 11   -115.263897373     -0.350568978      0.000000401      0.000004279    0.14
 12   -115.263897625     -0.350569229     -0.000000252      0.000002573    0.14
 13   -115.263897711     -0.350569315     -0.000000086      0.000002259    0.14
 14   -115.263897778     -0.350569382     -0.000000067      0.000001943    0.14
 15   -115.263897799     -0.350569404     -0.000000022      0.000001561    0.14
 16   -115.263897804     -0.350569408     -0.000000004      0.000000907    0.14
               --- The Coupled-Cluster iterations have converged ---

----------------------
COUPLED CLUSTER ENERGY
----------------------

E(0)                                       ...   -114.913308664
E(CORR)(strong-pairs)                      ...     -0.350569408
E(CORR)(weak-pairs)                        ...     -0.000019732
E(CORR)(corrected)                         ...     -0.350589140
E(TOT)                                     ...   -115.263897804
Singles Norm <S|S>**1/2                    ...      0.026885621  
T1 diagnostic                              ...      0.007185484  

------------------
LARGEST AMPLITUDES
------------------
   2->  9   2->  9       0.134587
   2->  9   2-> 21       0.038587
   2-> 21   2->  9       0.038587
   8-> 12   8-> 12       0.038431
   5-> 10   5-> 10       0.038099
   6-> 10   6-> 10       0.037650
   2->  9   2-> 14       0.035729
   2-> 14   2->  9       0.035729
   8->  9   8->  9       0.033543
   7-> 12   7-> 12       0.033367
   6-> 16   6-> 16       0.033274
   5-> 16   5-> 16       0.031466
   6->  9   6->  9       0.030486
   5->  9   5->  9       0.030356
   5-> 15   5-> 15       0.029990
   5-> 10   5-> 16       0.028839


-------------------------------------------
DLPNO BASED TRIPLES CORRECTION
-------------------------------------------

Singles multiplier          ...  1.000000
TCutTNO                     ... 1.000e-09
TCutMP2Pairs                ... 1.000e-06
TCutDOStrong                ... 1.000e-02
TCutMKNStrong               ... 1.000e-02
TCutDOWeak                  ... 2.000e-02
TCutMKNWeak                 ... 1.000e-01

Fragment selection                          .... not used
Fock matrix occ-virt block is zero --> Setting DT_in_Triples to false.
Number of Triples that are to be computed   ...        77

 . . . . . . . . .
10% done  
20% done  
30% done  
40% done  
50% done  
60% done  
70% done  
80% done  
90% done               (      1.338 sec)
Triples timings:
Total time for T0               ...     1.379 sec
Total time for Iterative (T)    ...     0.000 sec
Total time of overall (T)       ...     1.379 sec

Triples List generation         ...     0.000 sec
TNO generation                  ...     0.041 sec
Pair density generation         ...     0.000 sec
Look up tables                  ...     0.000 sec
Generating 3-index integrals    ...     0.165 sec
  Make 4-ind.int. from 3-ind.int...     0.063 sec
  Projecting amplitudes (D + S) ...     0.015 sec
  Downprojecting integrals      ...     0.000 sec
  Energy contr. (sum over a,b,c)...     1.055 sec
Fitting ET(->0)                 ...     0.000 sec

Everything after 3-index        ...     1.172 sec

Timing details:
 TNO integrals                  ...     0.175 sec
   Reading 3-index integrals    ...     0.002 sec
   Sorting integrals            ...     0.058 sec
       Sorting integrals 1      ...     0.000 sec
       Sorting integrals 2      ...     0.025 sec
       Sorting integrals 3      ...     0.016 sec
       Sorting integrals 4      ...     0.001 sec
       Sorting integrals 5      ...     0.002 sec
       Sorting integrals 6      ...     0.015 sec
   Calculating local VM**-1/2   ...     0.008 sec
   Orthogonal. integrals        ...     0.008 sec
   Multipl. 3-index integrals   ...     0.100 sec
   All concerning IRIab (w/TNO) ...     0.027 sec

 Calculate W0/W1                ...     0.038 sec
 W 3-ext contribution           ...     0.016 sec
 W 3-int contribution           ...     0.006 sec
 Sorting W                      ...     0.013 sec

 V exchange contribution        ...     0.526 sec

 Timings for Triples without generation
     of 3-index integrals       ...     1.172 sec
       0 weak pairs             ...     1.172 sec
       1 weak pair              ...     0.000 sec
       2 weak pairs             ...     0.000 sec
       3 weak pairs             ...     0.000 sec
  Extra time for extrapolation  ...     0.000 sec

Number of Triples   (0, 1, 2, 3 weak pairs; overall):     77       0       0       0  (    77)
Number of Atoms     (0, 1, 2, 3 weak pairs; overall):    5.7     0.0     0.0     0.0  (     6)
Number of PAOs      (0, 1, 2, 3 weak pairs; overall):   46.4     0.0     0.0     0.0  (    48)
Number of AuxFcns   (0, 1, 2, 3 weak pairs; overall):  114.9     0.0     0.0     0.0  (   168)
Number of TNOs      (0, 1, 2, 3 weak pairs         ):   31.8     0.0     0.0     0.0
Aver. Number of NTNO, Atoms, PAOs, AuxFcns / Triples:     77    31.8     5.7    46.4   114.9

Triples Correction (T)                     ...     -0.006100354
Final correlation energy                   ...     -0.356689494
E(CCSD)                                    ...   -115.263897804
E(CCSD(T))                                 ...   -115.269998158


Maximum memory used throughout the entire calculation: 282.9 MB


------------------------------------------------------------------------------- 
                                     TIMINGS                                   
------------------------------------------------------------------------------- 


Total execution time                   ...        6.678 sec

Localization of occupied MO's          ...        0.197 sec (  2.9%)
Fock Matrix Formation                  ...        0.244 sec (  3.7%)
Global overlap, Fock, MKN matrices     ...        0.055 sec (  0.8%)
Differential overlap integrals         ...        0.031 sec (  0.5%)
Organizing maps                        ...        0.001 sec (  0.0%)
RI 3-index integral generations        ...        0.530 sec (  7.9%)
RI-PNO integral transformation         ...        1.559 sec ( 23.3%)
Initial Guess                          ...        0.168 sec (  2.5%)
DIIS Solver                            ...        0.057 sec (  0.9%)
State Vector Update                    ...        0.001 sec (  0.0%)
Sigma-vector construction              ...        2.404 sec ( 36.0%)
  <D|H|D>(0-ext)                       ...        0.325 sec ( 13.5% of sigma)
  <D|H|D>(2-ext Fock)                  ...        0.004 sec (  0.2% of sigma)
  <D|H|D>(2-ext)                       ...        0.397 sec ( 16.5% of sigma)
  <D|H|D>(4-ext)                       ...        0.265 sec ( 11.0% of sigma)
  <D|H|D>(4-ext-corr)                  ...        0.671 sec ( 27.9% of sigma)
  CCSD doubles correction              ...        0.035 sec (  1.4% of sigma)
  <S|H|S>                              ...        0.055 sec (  2.3% of sigma)
  <S|H|D>(1-ext)                       ...        0.048 sec (  2.0% of sigma)
  <D|H|S>(1-ext)                       ...        0.003 sec (  0.1% of sigma)
  <S|H|D>(3-ext)                       ...        0.033 sec (  1.4% of sigma)
  Fock-dressing                        ...        0.309 sec ( 12.9% of sigma)
  Singles amplitudes                   ...        0.011 sec (  0.5% of sigma)
  (ik|jl)-dressing                     ...        0.072 sec (  3.0% of sigma)
  (ij|ab),(ia|jb)-dressing             ...        0.157 sec (  6.5% of sigma)
  Pair energies                        ...        0.001 sec (  0.0% of sigma)
Total Time for computing (T)           ...        1.380 sec ( 20.7% of ALL)


-------------------------   --------------------
FINAL SINGLE POINT ENERGY      -115.269998157573
-------------------------   --------------------


                            ***************************************
                            *     ORCA property calculations      *
                            ***************************************

                                    ---------------------
                                    Active property flags
                                    ---------------------
   (+) Dipole Moment


------------------------------------------------------------------------------
                       ORCA ELECTRIC PROPERTIES CALCULATION
------------------------------------------------------------------------------

Dipole Moment Calculation                       ... on
Quadrupole Moment Calculation                   ... off
Polarizability Calculation                      ... off
GBWName                                         ... input.gbw
Electron density file                           ... input.scfp
The origin for moment calculation is the CENTER OF MASS  = (-1.375717, -1.307436  2.525322)

-------------
DIPOLE MOMENT
-------------
                                X             Y             Z
Electronic contribution:     -0.52508      -0.32616       0.56349
Nuclear contribution   :      1.66396       0.66023      -1.59183
                        -----------------------------------------
Total Dipole Moment    :      1.13887       0.33407      -1.02834
                        -----------------------------------------
Magnitude (a.u.)       :      1.57039
Magnitude (Debye)      :      3.99161



--------------------
Rotational spectrum 
--------------------
 
Rotational constants in cm-1:     7.426533     0.221986     0.215572 
Rotational constants in MHz : 222641.858373  6654.981033  6462.700161 

 Dipole components along the rotational axes: 
x,y,z [a.u.] :    -1.477016     0.531478     0.045560 
x,y,z [Debye]:    -3.754276     1.350909     0.115804 

 

Timings for individual modules:

Sum of individual times         ...        8.532 sec (=   0.142 min)
GTO integral calculation        ...        0.130 sec (=   0.002 min)   1.5 %
SCF iterations                  ...        1.630 sec (=   0.027 min)  19.1 %
MDCI module                     ...        6.772 sec (=   0.113 min)  79.4 %
                             ****ORCA TERMINATED NORMALLY****
TOTAL RUN TIME: 0 days 0 hours 0 minutes 8 seconds 656 msec
/var/spool/slurmd/job6541114/slurm_script: line 26: ​: command not found
