/var/spool/slurmd/job6541113/slurm_script: line 8: ​: command not found
/var/spool/slurmd/job6541113/slurm_script: line 13: ​: command not found
/var/spool/slurmd/job6541113/slurm_script: line 16: ​: command not found
/var/spool/slurmd/job6541113/slurm_script: line 22: ​: command not found

                                 *****************
                                 * O   R   C   A *
                                 *****************

           --- An Ab Initio, DFT and Semiempirical electronic structure package ---

                  #######################################################
                  #                        -***-                        #
                  #          Department of theory and spectroscopy      #
                  #               Directorship: Frank Neese             #
                  #        Max Planck Institute fuer Kohlenforschung    #
                  #                Kaiser Wilhelm Platz 1               #
                  #                 D-45470 Muelheim/Ruhr               #
                  #                      Germany                        #
                  #                                                     #
                  #                  All rights reserved                #
                  #                        -***-                        #
                  #######################################################


                         Program Version 4.2.0 -  RELEASE  -


 With contributions from (in alphabetic order):
   Daniel Aravena         : Magnetic Suceptibility
   Michael Atanasov       : Ab Initio Ligand Field Theory (pilot matlab implementation)
   Alexander A. Auer      : GIAO ZORA, VPT2
   Ute Becker             : Parallelization
   Giovanni Bistoni       : ED, misc. LED, open-shell LED, HFLED
   Martin Brehm           : Molecular dynamics
   Dmytro Bykov           : SCF Hessian
   Vijay G. Chilkuri      : MRCI spin determinant printing, contributions to CSF-ICE
   Dipayan Datta          : RHF DLPNO-CCSD density
   Achintya Kumar Dutta   : EOM-CC, STEOM-CC
   Dmitry Ganyushin       : Spin-Orbit,Spin-Spin,Magnetic field MRCI
   Miquel Garcia          : C-PCM Hessian, Gaussian charge scheme
   Yang Guo               : DLPNO-NEVPT2, CIM, IAO-localization
   Andreas Hansen         : Spin unrestricted coupled pair/coupled cluster methods
   Benjamin Helmich-Paris : CASSCF linear response (MC-RPA)
   Lee Huntington         : MR-EOM, pCC
   Robert Izsak           : Overlap fitted RIJCOSX, COSX-SCS-MP3, EOM
   Christian Kollmar      : KDIIS, OOCD, Brueckner-CCSD(T), CCSD density
   Simone Kossmann        : Meta GGA functionals, TD-DFT gradient, OOMP2, MP2 Hessian
   Martin Krupicka        : AUTO-CI
   Lucas Lang             : DCDCAS
   Dagmar Lenk            : GEPOL surface, SMD
   Dimitrios Liakos       : Extrapolation schemes; Compound Job, initial MDCI parallelization
   Dimitrios Manganas     : Further ROCIS development; embedding schemes
   Dimitrios Pantazis     : SARC Basis sets
   Taras Petrenko         : DFT Hessian,TD-DFT gradient, ASA, ECA, R-Raman, ABS, FL, XAS/XES, NRVS
   Peter Pinski           : DLPNO-MP2, DLPNO-MP2 Gradient
   Christoph Reimann      : Effective Core Potentials
   Marius Retegan         : Local ZFS, SOC
   Christoph Riplinger    : Optimizer, TS searches, QM/MM, DLPNO-CCSD(T), (RO)-DLPNO pert. Triples
   Tobias Risthaus        : Range-separated hybrids, TD-DFT gradient, RPA, STAB
   Michael Roemelt        : Original ROCIS implementation
   Masaaki Saitow         : Open-shell DLPNO-CCSD energy and density
   Barbara Sandhoefer     : DKH picture change effects
   Avijit Sen             : IP-ROCIS
   Kantharuban Sivalingam : CASSCF convergence, NEVPT2, FIC-MRCI
   Bernardo de Souza      : ESD, SOC TD-DFT
   Georgi Stoychev        : AutoAux, RI-MP2 NMR
   Willem Van den Heuvel  : Paramagnetic NMR
   Boris Wezisla          : Elementary symmetry handling
   Frank Wennmohs         : Technical directorship


 We gratefully acknowledge several colleagues who have allowed us to
 interface, adapt or use parts of their codes:
   Stefan Grimme, W. Hujo, H. Kruse,             : VdW corrections, initial TS optimization,
                  C. Bannwarth                     DFT functionals, gCP, sTDA/sTD-DF
   Ed Valeev, F. Pavosevic, A. Kumar             : LibInt (2-el integral package), F12 methods
   Garnet Chan, S. Sharma, J. Yang, R. Olivares  : DMRG
   Ulf Ekstrom                                   : XCFun DFT Library
   Mihaly Kallay                                 : mrcc  (arbitrary order and MRCC methods)
   Andreas Klamt, Michael Diedenhofen            : otool_cosmo (COSMO solvation model)
   Jiri Pittner, Ondrej Demel                    : Mk-CCSD
   Frank Weinhold                                : gennbo (NPA and NBO analysis)
   Christopher J. Cramer and Donald G. Truhlar   : smd solvation model
   Lars Goerigk                                  : TD-DFT with DH, B97 family of functionals
   V. Asgeirsson, H. Jonsson                     : NEB implementation
   FAccTs GmbH                                   : IRC, NEB, NEB-TS, Multilevel, MM, QM/MM, CI optimization
   S Lehtola, MJT Oliveira, MAL Marques          : LibXC Library


 Your calculation uses the libint2 library for the computation of 2-el integrals
 For citations please refer to: http://libint.valeyev.net

 Your ORCA version has been built with support for libXC version: 4.2.3
 For citations please refer to: https://tddft.org/programs/libxc/

 This ORCA versions uses:
   CBLAS   interface :  Fast vector & matrix operations
   LAPACKE interface :  Fast linear algebra routines
   SCALAPACK package :  Parallel linear algebra routines


Your calculation utilizes the atom-pairwise dispersion correction
with the Becke-Johnson damping scheme (D3BJ)
Cite in your paper:
S.Grimme, S.Ehrlich, L.Goerigk, J Comput Chem, (2011), 32, 1456–1465 
S.Grimme, J.Antony, S.Ehrlich and H.Krieg, J.Chem.Phys., 132, (2010), 154104 
   

----- Orbital basis set information -----
Your calculation utilizes the basis: def2-TZVP
   F. Weigend and R. Ahlrichs, Phys. Chem. Chem. Phys. 7, 3297 (2005).

================================================================================
                                        WARNINGS
                       Please study these warnings very carefully!
================================================================================


WARNING: Geometry Optimization
  ===> : Switching off AutoStart
         For restart on a previous wavefunction, please use MOREAD

INFO   : the flag for use of LIBINT has been found!

================================================================================
                                       INPUT FILE
================================================================================
NAME = input.inp
|  1> ! PBE0 D3 def2-TZVP Opt
|  2> *xyz 0 1
|  3>   C      0.158328    0.108721    0.233327
|  4>   H      1.032407   -0.083436   -0.419629
|  5>   H     -0.105718    1.160959    0.009695
|  6>   O     -1.505910   -1.337873    2.272245
|  7>   H     -0.929295   -0.931121    1.599741
|  8>   H     -1.123517   -2.199945    2.444084
|  9> **                         ****END OF INPUT****
================================================================================

                       *****************************
                       * Geometry Optimization Run *
                       *****************************

Geometry optimization settings:
Update method            Update   .... BFGS
Choice of coordinates    CoordSys .... Z-matrix Internals
Initial Hessian          InHess   .... Almoef's Model

Convergence Tolerances:
Energy Change            TolE     ....  5.0000e-06 Eh
Max. Gradient            TolMAXG  ....  3.0000e-04 Eh/bohr
RMS Gradient             TolRMSG  ....  1.0000e-04 Eh/bohr
Max. Displacement        TolMAXD  ....  4.0000e-03 bohr
RMS Displacement         TolRMSD  ....  2.0000e-03 bohr
Strict Convergence                ....  False
------------------------------------------------------------------------------
                        ORCA OPTIMIZATION COORDINATE SETUP
------------------------------------------------------------------------------

The optimization will be done in new redundant internal coordinates
Making redundant internal coordinates   ...  (new redundants) done
Evaluating the initial hessian          ...  (Almloef) done
Evaluating the coordinates              ...  done
Calculating the B-matrix                .... done
Calculating the G-matrix                .... done
Diagonalizing the G-matrix              .... done
The first mode is                       ....    1
The number of degrees of freedom        ....   12

    -----------------------------------------------------------------
                    Redundant Internal Coordinates


    -----------------------------------------------------------------
         Definition                    Initial Value    Approx d2E/dq
    -----------------------------------------------------------------
      1. B(H   1,C   0)                  1.1078         0.337268   
      2. B(H   2,C   0)                  1.1077         0.337465   
      3. B(H   4,O   3)                  0.9748         0.492479   
      4. B(H   4,C   0)                  2.0326         0.011288   
      5. B(H   5,O   3)                  0.9586         0.522630   
      6. A(H   1,C   0,H   2)          103.5243         0.284968   
      7. A(H   1,C   0,H   4)          136.8604         0.179825   
      8. A(H   2,C   0,H   4)          119.6143         0.179837   
      9. A(H   4,O   3,H   5)          105.2459         0.319257   
     10. A(C   0,H   4,O   3)          173.6187         0.186797   
     11. D(O   3,H   4,C   0,H   2)     -3.6859         0.001556   
     12. D(C   0,H   4,O   3,H   5)   -170.6148         0.264887   
     13. D(O   3,H   4,C   0,H   1)    175.8940         0.001556   
    -----------------------------------------------------------------

Number of atoms                         .... 6
Number of degrees of freedom            .... 13

         *************************************************************
         *                GEOMETRY OPTIMIZATION CYCLE   1            *
         *************************************************************
---------------------------------
CARTESIAN COORDINATES (ANGSTROEM)
---------------------------------
  C      0.158328    0.108721    0.233327
  H      1.032407   -0.083436   -0.419629
  H     -0.105718    1.160959    0.009695
  O     -1.505910   -1.337873    2.272245
  H     -0.929295   -0.931121    1.599741
  H     -1.123517   -2.199945    2.444084

----------------------------
CARTESIAN COORDINATES (A.U.)
----------------------------
  NO LB      ZA    FRAG     MASS         X           Y           Z
   0 C     6.0000    0    12.011    0.299197    0.205453    0.440924
   1 H     1.0000    0     1.008    1.950966   -0.157671   -0.792984
   2 H     1.0000    0     1.008   -0.199778    2.193895    0.018321
   3 O     8.0000    0    15.999   -2.845757   -2.528214    4.293921
   4 H     1.0000    0     1.008   -1.756113   -1.759564    3.023072
   5 H     1.0000    0     1.008   -2.123139   -4.157294    4.618649

--------------------------------
INTERNAL COORDINATES (ANGSTROEM)
--------------------------------
 C      0   0   0     0.000000000000     0.00000000     0.00000000
 H      1   0   0     1.107831191485     0.00000000     0.00000000
 H      1   2   0     1.107671598527   103.52430952     0.00000000
 O      1   2   3     3.003249728578   138.92227285   180.60082099
 H      4   1   2     0.974778784004     4.31393660   355.72688810
 H      4   1   2     0.958603766712   109.50074819     5.33492411

---------------------------
INTERNAL COORDINATES (A.U.)
---------------------------
 C      0   0   0     0.000000000000     0.00000000     0.00000000
 H      1   0   0     2.093497554521     0.00000000     0.00000000
 H      1   2   0     2.093195967539   103.52430952     0.00000000
 O      1   2   3     5.675319498786   138.92227285   180.60082099
 H      4   1   2     1.842064942925     4.31393660   355.72688810
 H      4   1   2     1.811498590031   109.50074819     5.33492411

---------------------
BASIS SET INFORMATION
---------------------
There are 3 groups of distinct atoms

 Group   1 Type C   : 11s6p2d1f contracted to 5s3p2d1f pattern {62111/411/11/1}
 Group   2 Type H   : 5s1p contracted to 3s1p pattern {311/1}
 Group   3 Type O   : 11s6p2d1f contracted to 5s3p2d1f pattern {62111/411/11/1}

Atom   0C    basis set group =>   1
Atom   1H    basis set group =>   2
Atom   2H    basis set group =>   2
Atom   3O    basis set group =>   3
Atom   4H    basis set group =>   2
Atom   5H    basis set group =>   2
------------------------------------------------------------------------------
                           ORCA GTO INTEGRAL CALCULATION
------------------------------------------------------------------------------

                         BASIS SET STATISTICS AND STARTUP INFO

 # of primitive gaussian shells          ...   64
 # of primitive gaussian functions       ...  124
 # of contracted shells                  ...   38
 # of contracted basis functions         ...   86
 Highest angular momentum                ...    3
 Maximum contraction depth               ...    6
 Integral package used                   ... LIBINT
 Integral threshhold            Thresh   ...  2.500e-11
 Primitive cut-off              TCut     ...  2.500e-12


------------------------------ INTEGRAL EVALUATION ----------------------------


 * One electron integrals 
 Pre-screening matrix                    ... done
 Shell pair data                         ... done (   0.000 sec)

-------------------------------------------------------------------------------
                                 ORCA SCF
-------------------------------------------------------------------------------

------------
SCF SETTINGS
------------
Hamiltonian:
 Density Functional     Method          .... DFT(GTOs)
 Exchange Functional    Exchange        .... PBE
   PBE kappa parameter   XKappa         ....  0.804000
   PBE mue parameter    XMuePBE         ....  0.219520
 Correlation Functional Correlation     .... PBE
   PBE beta parameter  CBetaPBE         ....  0.066725
 LDA part of GGA corr.  LDAOpt          .... PW91-LDA
 Gradients option       PostSCFGGA      .... off
 Hybrid DFT is turned on
   Fraction HF Exchange ScalHFX         ....  0.250000
   Scaling of DF-GGA-X  ScalDFX         ....  0.750000
   Scaling of DF-GGA-C  ScalDFC         ....  1.000000
   Scaling of DF-LDA-C  ScalLDAC        ....  1.000000
   Perturbative correction              ....  0.000000
   Density functional embedding theory  .... OFF
   NL short-range parameter             ....  6.900000


General Settings:
 Integral files         IntName         .... input
 Hartree-Fock type      HFTyp           .... RHF
 Total Charge           Charge          ....    0
 Multiplicity           Mult            ....    1
 Number of Electrons    NEL             ....   18
 Basis Dimension        Dim             ....   86
 Nuclear Repulsion      ENuc            ....     28.9483713355 Eh

Convergence Acceleration:
 DIIS                   CNVDIIS         .... on
   Start iteration      DIISMaxIt       ....    12
   Startup error        DIISStart       ....  0.200000
   # of expansion vecs  DIISMaxEq       ....     5
   Bias factor          DIISBfac        ....   1.050
   Max. coefficient     DIISMaxC        ....  10.000
 Newton-Raphson         CNVNR           .... off
 SOSCF                  CNVSOSCF        .... on
   Start iteration      SOSCFMaxIt      ....   150
   Startup grad/error   SOSCFStart      ....  0.003300
 Level Shifting         CNVShift        .... on
   Level shift para.    LevelShift      ....    0.2500
   Turn off err/grad.   ShiftErr        ....    0.0010
 Zerner damping         CNVZerner       .... off
 Static damping         CNVDamp         .... on
   Fraction old density DampFac         ....    0.7000
   Max. Damping (<1)    DampMax         ....    0.9800
   Min. Damping (>=0)   DampMin         ....    0.0000
   Turn off err/grad.   DampErr         ....    0.1000
 Fernandez-Rico         CNVRico         .... off

SCF Procedure:
 Maximum # iterations   MaxIter         ....   125
 SCF integral mode      SCFMode         .... Direct
   Integral package                     .... LIBINT
 Reset frequency        DirectResetFreq ....    20
 Integral Threshold     Thresh          ....  2.500e-11 Eh
 Primitive CutOff       TCut            ....  2.500e-12 Eh

Convergence Tolerance:
 Convergence Check Mode ConvCheckMode   .... Total+1el-Energy
 Convergence forced     ConvForced      .... 0
 Energy Change          TolE            ....  1.000e-08 Eh
 1-El. energy change                    ....  1.000e-05 Eh
 Orbital Gradient       TolG            ....  1.000e-05
 Orbital Rotation angle TolX            ....  1.000e-05
 DIIS Error             TolErr          ....  5.000e-07


Diagonalization of the overlap matrix:
Smallest eigenvalue                        ... 3.754e-03
Time for diagonalization                   ...    0.001 sec
Threshold for overlap eigenvalues          ... 1.000e-08
Number of eigenvalues below threshold      ... 0
Time for construction of square roots      ...    0.000 sec
Total time needed                          ...    0.002 sec

-------------------
DFT GRID GENERATION
-------------------

General Integration Accuracy     IntAcc      ...  4.340
Radial Grid Type                 RadialGrid  ... Gauss-Chebyshev
Angular Grid (max. acc.)         AngularGrid ... Lebedev-110
Angular grid pruning method      GridPruning ... 3 (G Style)
Weight generation scheme         WeightScheme... Becke
Basis function cutoff            BFCut       ...    1.0000e-11
Integration weight cutoff        WCut        ...    1.0000e-14
Grids for H and He will be reduced by one unit

# of grid points (after initial pruning)     ...   6548 (   0.0 sec)
# of grid points (after weights+screening)   ...   6435 (   0.0 sec)
nearest neighbour list constructed           ...    0.0 sec
Grid point re-assignment to atoms done       ...    0.0 sec
Grid point division into batches done        ...    0.0 sec
Reduced shell lists constructed in    0.0 sec

Total number of grid points                  ...     6435
Total number of batches                      ...      104
Average number of points per batch           ...       61
Average number of grid points per atom       ...     1072
Average number of shells per batch           ...    28.82 (75.84%)
Average number of basis functions per batch  ...    65.30 (75.92%)
Average number of large shells per batch     ...    24.29 (84.27%)
Average number of large basis fcns per batch ...    54.30 (83.17%)
Maximum spatial batch extension              ...  22.11, 21.59, 25.79 au
Average spatial batch extension              ...   5.35,  4.78,  5.06 au

Time for grid setup =    0.025 sec

------------------------------
INITIAL GUESS: MODEL POTENTIAL
------------------------------
Loading Hartree-Fock densities                     ... done
Calculating cut-offs                               ... done
Setting up the integral package                    ... done
Initializing the effective Hamiltonian             ... done
Starting the Coulomb interaction                   ... done (   0.0 sec)
Reading the grid                                   ... done
Mapping shells                                     ... done
Starting the XC term evaluation                    ... done (   0.0 sec)
  promolecular density results
     # of electrons  =     17.996851576
     EX              =    -14.326022456
     EC              =     -0.545493559
     EX+EC           =    -14.871516015
Transforming the Hamiltonian                       ... done (   0.0 sec)
Diagonalizing the Hamiltonian                      ... done (   0.0 sec)
Back transforming the eigenvectors                 ... done (   0.0 sec)
Now organizing SCF variables                       ... done
                      ------------------
                      INITIAL GUESS DONE (   0.1 sec)
                      ------------------
--------------
SCF ITERATIONS
--------------
ITER       Energy         Delta-E        Max-DP      RMS-DP      [F,P]     Damp
               ***  Starting incremental Fock matrix formation  ***
  0   -115.3668126864   0.000000000000 0.05098328  0.00201911  0.3342514 0.7000
  1   -115.4196522971  -0.052839610668 0.02743225  0.00130680  0.1387139 0.7000
                               ***Turning on DIIS***
  2   -115.4375142883  -0.017861991241 0.03549110  0.00196031  0.0308829 0.0000
  3   -115.4689492691  -0.031434980823 0.01746388  0.00078749  0.0823756 0.0000
  4   -115.4749612105  -0.006011941409 0.00427682  0.00022782  0.0081871 0.0000
                      *** Initiating the SOSCF procedure ***
                           *** Shutting down DIIS ***
                      *** Re-Reading the Fockian *** 
                      *** Removing any level shift *** 
ITER      Energy       Delta-E        Grad      Rot      Max-DP    RMS-DP
  5   -115.47513153  -0.0001703165  0.000647  0.000647  0.001360  0.000061
               *** Restarting incremental Fock matrix formation ***
  6   -115.47514254  -0.0000110096  0.000428  0.003099  0.000759  0.000043
  7   -115.47514666  -0.0000041212  0.000119  0.001216  0.000249  0.000016
  8   -115.47514700  -0.0000003450  0.000011  0.000026  0.000024  0.000001
  9   -115.47514700  -0.0000000014  0.000007  0.000008  0.000012  0.000000
                  ***Gradient check signals convergence***
              ***Rediagonalizing the Fockian in SOSCF/NRSCF***

               *****************************************************
               *                     SUCCESS                       *
               *           SCF CONVERGED AFTER  10 CYCLES          *
               *****************************************************

Setting up the final grid:

General Integration Accuracy     IntAcc      ...  4.670
Radial Grid Type                 RadialGrid  ... Gauss-Chebyshev
Angular Grid (max. acc.)         AngularGrid ... Lebedev-302
Angular grid pruning method      GridPruning ... 3 (G Style)
Weight generation scheme         WeightScheme... Becke
Basis function cutoff            BFCut       ...    1.0000e-11
Integration weight cutoff        WCut        ...    1.0000e-14
Grids for H and He will be reduced by one unit

# of grid points (after initial pruning)     ...  26000 (   0.0 sec)
# of grid points (after weights+screening)   ...  25460 (   0.0 sec)
nearest neighbour list constructed           ...    0.0 sec
Grid point re-assignment to atoms done       ...    0.0 sec
Grid point division into batches done        ...    0.1 sec
Reduced shell lists constructed in    0.1 sec

Total number of grid points                  ...    25460
Total number of batches                      ...      400
Average number of points per batch           ...       63
Average number of grid points per atom       ...     4243
Average number of shells per batch           ...    26.38 (69.41%)
Average number of basis functions per batch  ...    59.15 (68.78%)
Average number of large shells per batch     ...    22.03 (83.53%)
Average number of large basis fcns per batch ...    49.01 (82.87%)
Maximum spatial batch extension              ...  20.64, 20.64, 21.01 au
Average spatial batch extension              ...   3.23,  3.07,  3.35 au

Final grid set up in    0.1 sec
Final integration                            ... done (   0.1 sec)
Change in XC energy                          ...     0.000180898
Integrated number of electrons               ...    17.999994446
Previous integrated no of electrons          ...    17.999998771

----------------
TOTAL SCF ENERGY
----------------

Total Energy       :         -115.47496611 Eh           -3142.23358 eV

Components:
Nuclear Repulsion  :           28.94837134 Eh             787.72523 eV
Electronic Energy  :         -144.42333744 Eh           -3929.95881 eV
One Electron Energy:         -214.38633959 Eh           -5833.74888 eV
Two Electron Energy:           69.96300214 Eh            1903.79008 eV

Virial components:
Potential Energy   :         -230.49603158 Eh           -6272.11589 eV
Kinetic Energy     :          115.02106547 Eh            3129.88231 eV
Virial Ratio       :            2.00394624


DFT components:
N(Alpha)           :        8.999997223116 electrons
N(Beta)            :        8.999997223116 electrons
N(Total)           :       17.999994446231 electrons
E(X)               :      -11.012661143541 Eh       
E(C)               :       -0.555778547264 Eh       
E(XC)              :      -11.568439690805 Eh       
DFET-embed. en.    :        0.000000000000 Eh       

---------------
SCF CONVERGENCE
---------------

  Last Energy change         ...   -9.8454e-10  Tolerance :   1.0000e-08
  Last MAX-Density change    ...    3.3758e-06  Tolerance :   1.0000e-07
  Last RMS-Density change    ...    1.6115e-07  Tolerance :   5.0000e-09
  Last Orbital Gradient      ...    2.3669e-06  Tolerance :   1.0000e-05
  Last Orbital Rotation      ...    2.1602e-06  Tolerance :   1.0000e-05

             **** THE GBW FILE WAS UPDATED (input.gbw) ****
             **** DENSITY FILE WAS UPDATED (input.scfp) ****
             **** ENERGY FILE WAS UPDATED (input.en.tmp) ****
             **** THE GBW FILE WAS UPDATED (input.gbw) ****
             **** DENSITY FILE WAS UPDATED (input.scfp) ****
----------------
ORBITAL ENERGIES
----------------

  NO   OCC          E(Eh)            E(eV) 
   0   2.0000     -19.159616      -521.3597 
   1   2.0000     -10.321998      -280.8758 
   2   2.0000      -0.995520       -27.0895 
   3   2.0000      -0.714759       -19.4496 
   4   2.0000      -0.507508       -13.8100 
   5   2.0000      -0.448998       -12.2179 
   6   2.0000      -0.369742       -10.0612 
   7   2.0000      -0.292695        -7.9646 
   8   2.0000      -0.289382        -7.8745 
   9   0.0000      -0.152352        -4.1457 
  10   0.0000       0.050545         1.3754 
  11   0.0000       0.082500         2.2449 
  12   0.0000       0.106359         2.8942 
  13   0.0000       0.194772         5.3000 
  14   0.0000       0.207916         5.6577 
  15   0.0000       0.234290         6.3753 
  16   0.0000       0.247100         6.7239 
  17   0.0000       0.288541         7.8516 
  18   0.0000       0.396748        10.7961 
  19   0.0000       0.431751        11.7485 
  20   0.0000       0.447256        12.1705 
  21   0.0000       0.464751        12.6465 
  22   0.0000       0.473508        12.8848 
  23   0.0000       0.499532        13.5929 
  24   0.0000       0.609104        16.5746 
  25   0.0000       0.615258        16.7420 
  26   0.0000       0.638303        17.3691 
  27   0.0000       0.781871        21.2758 
  28   0.0000       0.849267        23.1097 
  29   0.0000       0.932108        25.3640 
  30   0.0000       0.942802        25.6550 
  31   0.0000       1.218071        33.1454 
  32   0.0000       1.242446        33.8087 
  33   0.0000       1.323812        36.0227 
  34   0.0000       1.344557        36.5872 
  35   0.0000       1.385652        37.7055 
  36   0.0000       1.418213        38.5915 
  37   0.0000       1.466611        39.9085 
  38   0.0000       1.626768        44.2666 
  39   0.0000       1.653222        44.9865 
  40   0.0000       1.716977        46.7213 
  41   0.0000       1.808801        49.2200 
  42   0.0000       1.816039        49.4169 
  43   0.0000       1.883085        51.2414 
  44   0.0000       1.993577        54.2480 
  45   0.0000       2.072707        56.4012 
  46   0.0000       2.102954        57.2243 
  47   0.0000       2.130223        57.9663 
  48   0.0000       2.157271        58.7023 
  49   0.0000       2.191620        59.6370 
  50   0.0000       2.359810        64.2137 
  51   0.0000       2.420245        65.8582 
  52   0.0000       2.499851        68.0244 
  53   0.0000       2.566844        69.8474 
  54   0.0000       2.617711        71.2315 
  55   0.0000       2.687854        73.1402 
  56   0.0000       2.702535        73.5397 
  57   0.0000       2.714473        73.8646 
  58   0.0000       2.877945        78.3129 
  59   0.0000       2.917949        79.4014 
  60   0.0000       2.964898        80.6790 
  61   0.0000       2.973017        80.8999 
  62   0.0000       3.040570        82.7381 
  63   0.0000       3.085376        83.9573 
  64   0.0000       3.175933        86.4215 
  65   0.0000       3.219227        87.5996 
  66   0.0000       3.337153        90.8086 
  67   0.0000       3.438032        93.5536 
  68   0.0000       3.728067       101.4459 
  69   0.0000       3.991477       108.6136 
  70   0.0000       4.127096       112.3040 
  71   0.0000       4.146679       112.8369 
  72   0.0000       5.153655       140.2381 
  73   0.0000       5.252566       142.9296 
  74   0.0000       5.432392       147.8229 
  75   0.0000       5.459021       148.5475 
  76   0.0000       5.530104       150.4818 
  77   0.0000       6.107344       166.1893 
  78   0.0000       6.308438       171.6613 
  79   0.0000       6.369844       173.3323 
  80   0.0000       6.433918       175.0758 
  81   0.0000       6.488499       176.5610 
  82   0.0000       6.985669       190.0897 
  83   0.0000       7.070981       192.4112 
  84   0.0000      21.670768       589.6916 
  85   0.0000      43.549219      1185.0345 

                    ********************************
                    * MULLIKEN POPULATION ANALYSIS *
                    ********************************

-----------------------
MULLIKEN ATOMIC CHARGES
-----------------------
   0 C :   -0.308786
   1 H :    0.153307
   2 H :    0.154598
   3 O :   -0.667499
   4 H :    0.366654
   5 H :    0.301727
Sum of atomic charges:   -0.0000000

--------------------------------
MULLIKEN REDUCED ORBITAL CHARGES
--------------------------------
  0 C s       :     3.702757  s :     3.702757
      pz      :     0.687728  p :     2.573866
      px      :     0.750059
      py      :     1.136079
      dz2     :     0.002161  d :     0.031413
      dxz     :     0.011272
      dyz     :     0.005010
      dx2y2   :     0.012665
      dxy     :     0.000305
      f0      :     0.000107  f :     0.000751
      f+1     :     0.000060
      f-1     :     0.000098
      f+2     :     0.000014
      f-2     :     0.000079
      f+3     :     0.000203
      f-3     :     0.000189
  1 H s       :     0.824958  s :     0.824958
      pz      :     0.006347  p :     0.021735
      px      :     0.008941
      py      :     0.006447
  2 H s       :     0.823750  s :     0.823750
      pz      :     0.003912  p :     0.021652
      px      :     0.004537
      py      :     0.013203
  3 O s       :     3.799863  s :     3.799863
      pz      :     1.707217  p :     4.845796
      px      :     1.722136
      py      :     1.416444
      dz2     :     0.003219  d :     0.020581
      dxz     :     0.006263
      dyz     :     0.001003
      dx2y2   :     0.003512
      dxy     :     0.006583
      f0      :     0.000132  f :     0.001259
      f+1     :     0.000186
      f-1     :     0.000247
      f+2     :     0.000128
      f-2     :     0.000256
      f+3     :     0.000269
      f-3     :     0.000041
  4 H s       :     0.578202  s :     0.578202
      pz      :     0.021923  p :     0.055144
      px      :     0.018499
      py      :     0.014722
  5 H s       :     0.649574  s :     0.649574
      pz      :     0.015166  p :     0.048700
      px      :     0.015091
      py      :     0.018443


                     *******************************
                     * LOEWDIN POPULATION ANALYSIS *
                     *******************************

----------------------
LOEWDIN ATOMIC CHARGES
----------------------
   0 C :   -0.111922
   1 H :    0.090691
   2 H :    0.093175
   3 O :   -0.332474
   4 H :    0.118151
   5 H :    0.142378

-------------------------------
LOEWDIN REDUCED ORBITAL CHARGES
-------------------------------
  0 C s       :     3.366030  s :     3.366030
      pz      :     0.693325  p :     2.663606
      px      :     0.786445
      py      :     1.183836
      dz2     :     0.005658  d :     0.075454
      dxz     :     0.026539
      dyz     :     0.009610
      dx2y2   :     0.030126
      dxy     :     0.003523
      f0      :     0.000495  f :     0.006832
      f+1     :     0.000410
      f-1     :     0.000787
      f+2     :     0.002327
      f-2     :     0.000608
      f+3     :     0.001070
      f-3     :     0.001135
  1 H s       :     0.841057  s :     0.841057
      pz      :     0.020670  p :     0.068252
      px      :     0.029140
      py      :     0.018442
  2 H s       :     0.838245  s :     0.838245
      pz      :     0.012045  p :     0.068580
      px      :     0.013246
      py      :     0.043288
  3 O s       :     3.460996  s :     3.460996
      pz      :     1.683130  p :     4.838590
      px      :     1.716085
      py      :     1.439376
      dz2     :     0.004568  d :     0.030611
      dxz     :     0.008217
      dyz     :     0.002415
      dx2y2   :     0.005160
      dxy     :     0.010250
      f0      :     0.000171  f :     0.002276
      f+1     :     0.000378
      f-1     :     0.000355
      f+2     :     0.000117
      f-2     :     0.000475
      f+3     :     0.000658
      f-3     :     0.000121
  4 H s       :     0.697747  s :     0.697747
      pz      :     0.075830  p :     0.184102
      px      :     0.064881
      py      :     0.043391
  5 H s       :     0.692442  s :     0.692442
      pz      :     0.041680  p :     0.165179
      px      :     0.049935
      py      :     0.073564


                      *****************************
                      * MAYER POPULATION ANALYSIS *
                      *****************************

  NA   - Mulliken gross atomic population
  ZA   - Total nuclear charge
  QA   - Mulliken gross atomic charge
  VA   - Mayer's total valence
  BVA  - Mayer's bonded valence
  FA   - Mayer's free valence

  ATOM       NA         ZA         QA         VA         BVA        FA
  0 C      6.3088     6.0000    -0.3088     1.9357     1.9357    -0.0000
  1 H      0.8467     1.0000     0.1533     0.9447     0.9447    -0.0000
  2 H      0.8454     1.0000     0.1546     0.9455     0.9455    -0.0000
  3 O      8.6675     8.0000    -0.6675     1.7905     1.7905    -0.0000
  4 H      0.6333     1.0000     0.3667     0.8701     0.8701     0.0000
  5 H      0.6983     1.0000     0.3017     0.9303     0.9303    -0.0000

  Mayer bond orders larger than 0.100000
B(  0-C ,  1-H ) :   0.9485 B(  0-C ,  2-H ) :   0.9463 B(  3-O ,  4-H ) :   0.8563 
B(  3-O ,  5-H ) :   0.9162 

-------
TIMINGS
-------

Total SCF time: 0 days 0 hours 0 min 3 sec 

Total time                  ....       3.741 sec
Sum of individual times     ....       3.608 sec  ( 96.4%)

Fock matrix formation       ....       3.327 sec  ( 88.9%)
  XC integration            ....       0.424 sec  ( 12.7% of F)
    Basis function eval.    ....       0.162 sec  ( 38.3% of XC)
    Density eval.           ....       0.066 sec  ( 15.6% of XC)
    XC-Functional eval.     ....       0.065 sec  ( 15.3% of XC)
    XC-Potential eval.      ....       0.108 sec  ( 25.4% of XC)
Diagonalization             ....       0.005 sec  (  0.1%)
Density matrix formation    ....       0.000 sec  (  0.0%)
Population analysis         ....       0.001 sec  (  0.0%)
Initial guess               ....       0.103 sec  (  2.8%)
Orbital Transformation      ....       0.000 sec  (  0.0%)
Orbital Orthonormalization  ....       0.000 sec  (  0.0%)
DIIS solution               ....       0.001 sec  (  0.0%)
SOSCF solution              ....       0.002 sec  (  0.0%)
Grid generation             ....       0.169 sec  (  4.5%)


-------------------------------------------------------------------------------
                          DFT DISPERSION CORRECTION                            
                                                                               
                              DFTD3 V3.1  Rev 1                                
                          USING Becke-Johnson damping                          
-------------------------------------------------------------------------------
The PBE0 functional is recognized
Active option DFTDOPT                   ...         4   

molecular C6(AA) [au] = 243.019242 


            DFT-D V3
 parameters
 s6 scaling factor         :     1.0000 
 a1 scaling factor         :     0.4145 
 s8 scaling factor         :     1.2177 
 a2 scaling factor         :     4.8593 
 ad hoc parameters k1-k3   :    16.0000     1.3333    -4.0000 

 Edisp/kcal,au: -0.832363981761  -0.001326456296 
 E6   /kcal   :  -0.558470636 
 E8   /kcal   :  -0.273893345 
 % E8         :  32.905477813 

-------------------------   ----------------
Dispersion correction           -0.001326456
-------------------------   ----------------


-------------------------   --------------------
FINAL SINGLE POINT ENERGY      -115.476292563526
-------------------------   --------------------

------------------------------------------------------------------------------
                         ORCA SCF GRADIENT CALCULATION
------------------------------------------------------------------------------

Gradient of the Kohn-Sham DFT energy:
Kohn-Sham wavefunction type      ... RKS
Hartree-Fock exchange scaling    ...    0.250
Number of operators              ...    1
Number of atoms                  ...    6
Basis set dimensions             ...   86
Integral neglect threshold       ... 2.5e-11
Integral primitive cutoff        ... 2.5e-12

Nuclear repulsion gradient       ... done
One Electron Gradient            ... done
Pre-screening matrix             ... done
Starting the two electron gradient:
Two electron gradient done
Exchange-correlation gradient    ... done
Dispersion correction            ... done

------------------
CARTESIAN GRADIENT
------------------

   1   C   :    0.000004155    0.000021352   -0.000021804
   2   H   :    0.000009113    0.000001170    0.000025937
   3   H   :   -0.000016177   -0.000004412    0.000009835
   4   O   :   -0.000028361   -0.000021177   -0.000036883
   5   H   :    0.000034611    0.000011541    0.000030942
   6   H   :   -0.000003341   -0.000008474   -0.000008027

Difference to translation invariance:
           :   -0.0000000000   -0.0000000000    0.0000000000

Norm of the cartesian gradient     ...    0.0000844552
RMS gradient                       ...    0.0000199063
MAX gradient                       ...    0.0000368829

-------
TIMINGS
-------

Total SCF gradient time            ...        1.328 sec

One electron gradient       ....       0.011 sec  (  0.8%)
Prescreening matrices       ....       0.041 sec  (  3.1%)
Two electron gradient       ....       0.821 sec  ( 61.8%)
XC gradient                 ....       0.334 sec  ( 25.1%)
------------------------------------------------------------------------------
                         ORCA GEOMETRY RELAXATION STEP
------------------------------------------------------------------------------

Reading the OPT-File                    .... done
Getting information on internals        .... done
Copying old internal coords+grads       .... done
Making the new internal coordinates     .... (new redundants).... done
Validating the new internal coordinates .... (new redundants).... done
Calculating the B-matrix                .... done
Calculating the G,G- and P matrices     .... done
Transforming gradient to internals      .... done
Projecting the internal gradient        .... done
Number of atoms                         ....   6
Number of internal coordinates          ....  13
Current Energy                          ....  -115.476292564 Eh
Current gradient norm                   ....     0.000084455 Eh/bohr
Maximum allowed component of the step   ....  0.300
Current trust radius                    ....  0.300
Evaluating the initial hessian          ....  (Almloef) done
Projecting the Hessian                  .... done
Forming the augmented Hessian           .... done
Diagonalizing the augmented Hessian     .... done
Last element of RFO vector              ....  0.999997679
Lowest eigenvalues of augmented Hessian:
 -0.000000010  0.001555827  0.001558559  0.011288487  0.179830655
Length of the computed step             ....  0.002154387
The final length of the internal step   ....  0.002154387
Converting the step to cartesian space:
 Initial RMS(Int)=    0.0005975196
Transforming coordinates:
 Iter   0:  RMS(Cart)=    0.0004243875 RMS(Int)=    0.0005975512
 Iter   1:  RMS(Cart)=    0.0000003647 RMS(Int)=    0.0000004300
 Iter   2:  RMS(Cart)=    0.0000000001 RMS(Int)=    0.0000000002
done
Storing new coordinates                 .... done

                                .--------------------.
          ----------------------|Geometry convergence|-------------------------
          Item                value                   Tolerance       Converged
          ---------------------------------------------------------------------
          RMS gradient        0.0000075712            0.0001000000      YES
          MAX gradient        0.0000195927            0.0003000000      YES
          RMS step            0.0005975196            0.0020000000      YES
          MAX step            0.0016495375            0.0040000000      YES
          ........................................................
          Max(Bonds)      0.0000      Max(Angles)    0.00
          Max(Dihed)        0.09      Max(Improp)    0.00
          ---------------------------------------------------------------------

                    ***********************HURRAY********************
                    ***        THE OPTIMIZATION HAS CONVERGED     ***
                    *************************************************


    ---------------------------------------------------------------------------
                         Redundant Internal Coordinates

                          --- Optimized Parameters ---  
                            (Angstroem and degrees)

        Definition                    OldVal   dE/dq     Step     FinalVal
    ----------------------------------------------------------------------------
     1. B(H   1,C   0)                1.1078 -0.000006  0.0000    1.1078   
     2. B(H   2,C   0)                1.1077 -0.000006  0.0000    1.1077   
     3. B(H   4,O   3)                0.9748  0.000003 -0.0000    0.9748   
     4. B(H   4,C   0)                2.0326 -0.000001  0.0000    2.0326   
     5. B(H   5,O   3)                0.9586  0.000000 -0.0000    0.9586   
     6. A(H   1,C   0,H   2)          103.52  0.000020   -0.00    103.52   
     7. A(H   1,C   0,H   4)          136.86 -0.000012    0.00    136.86   
     8. A(H   2,C   0,H   4)          119.61 -0.000008    0.00    119.62   
     9. A(H   4,O   3,H   5)          105.25  0.000004   -0.00    105.25   
    10. A(C   0,H   4,O   3)          173.62 -0.000000    0.00    173.62   
    11. D(O   3,H   4,C   0,H   2)     -3.69 -0.000002    0.08     -3.61   
    12. D(C   0,H   4,O   3,H   5)   -170.61 -0.000008    0.00   -170.61   
    13. D(O   3,H   4,C   0,H   1)    175.89  0.000003   -0.09    175.80   
    ----------------------------------------------------------------------------
                 *******************************************************
                 *** FINAL ENERGY EVALUATION AT THE STATIONARY POINT ***
                 ***               (AFTER    1 CYCLES)               ***
                 *******************************************************
---------------------------------
CARTESIAN COORDINATES (ANGSTROEM)
---------------------------------
  C      0.157866    0.108476    0.232781
  H      1.032593   -0.083307   -0.419432
  H     -0.105450    1.161078    0.009963
  O     -1.505890   -1.337867    2.272305
  H     -0.929436   -0.931202    1.599616
  H     -1.123388   -2.199873    2.444230

----------------------------
CARTESIAN COORDINATES (A.U.)
----------------------------
  NO LB      ZA    FRAG     MASS         X           Y           Z
   0 C     6.0000    0    12.011    0.298324    0.204990    0.439893
   1 H     1.0000    0     1.008    1.951318   -0.157428   -0.792611
   2 H     1.0000    0     1.008   -0.199272    2.194120    0.018827
   3 O     8.0000    0    15.999   -2.845720   -2.528202    4.294034
   4 H     1.0000    0     1.008   -1.756380   -1.759716    3.022836
   5 H     1.0000    0     1.008   -2.122896   -4.157158    4.618925

--------------------------------
INTERNAL COORDINATES (ANGSTROEM)
--------------------------------
 C      0   0   0     0.000000000000     0.00000000     0.00000000
 H      1   0   0     1.107840123278     0.00000000     0.00000000
 H      1   2   0     1.107680253708   103.51957915     0.00000000
 O      1   2   3     3.003273535424   138.92453731   180.76124174
 H      4   1   2     0.974775624666     4.31395482   355.62852467
 H      4   1   2     0.958603420465   109.49994402     5.23823912

---------------------------
INTERNAL COORDINATES (A.U.)
---------------------------
 C      0   0   0     0.000000000000     0.00000000     0.00000000
 H      1   0   0     2.093514433165     0.00000000     0.00000000
 H      1   2   0     2.093212323460   103.51957915     0.00000000
 O      1   2   3     5.675364487205   138.92453731   180.76124174
 H      4   1   2     1.842058972640     4.31395482   355.62852467
 H      4   1   2     1.811497935719   109.49994402     5.23823912

---------------------
BASIS SET INFORMATION
---------------------
There are 3 groups of distinct atoms

 Group   1 Type C   : 11s6p2d1f contracted to 5s3p2d1f pattern {62111/411/11/1}
 Group   2 Type H   : 5s1p contracted to 3s1p pattern {311/1}
 Group   3 Type O   : 11s6p2d1f contracted to 5s3p2d1f pattern {62111/411/11/1}

Atom   0C    basis set group =>   1
Atom   1H    basis set group =>   2
Atom   2H    basis set group =>   2
Atom   3O    basis set group =>   3
Atom   4H    basis set group =>   2
Atom   5H    basis set group =>   2
------------------------------------------------------------------------------
                           ORCA GTO INTEGRAL CALCULATION
------------------------------------------------------------------------------

                         BASIS SET STATISTICS AND STARTUP INFO

 # of primitive gaussian shells          ...   64
 # of primitive gaussian functions       ...  124
 # of contracted shells                  ...   38
 # of contracted basis functions         ...   86
 Highest angular momentum                ...    3
 Maximum contraction depth               ...    6
 Integral package used                   ... LIBINT
 Integral threshhold            Thresh   ...  2.500e-11
 Primitive cut-off              TCut     ...  2.500e-12


------------------------------ INTEGRAL EVALUATION ----------------------------


 * One electron integrals 
 Pre-screening matrix                    ... done
 Shell pair data                         ... done (   0.000 sec)

